LAMMPS data file via write_data, version 2 Aug 2023, timestep = 30000, units = metal

256 atoms
1 atom types

-0.09013394446599765 14.530133944466014 xlo xhi
-0.09013394446599765 14.530133944466014 ylo yhi
-0.09013394446599765 14.530133944466014 zlo zhi

Masses

1 63.546

Atoms # atomic

7 1 3.724090557924243 1.6618202959775312 1.722840681012669 0 0 0
18 1 1.3387468156633182 3.3691507388247497 1.6413292509677193 0 0 0
68 1 1.2844646874786199 2.000158959359963 3.5290056379935897 0 0 0
71 1 2.980296607717806 2.002745714354651 5.483421408417836 0 0 0
82 1 1.6566015821762523 3.7742964774876393 5.190890721561411 0 0 0
85 1 3.7955125207282836 3.526256829749402 3.5445583804594376 0 0 0
2 1 1.9074508281416358 0.06776164917575223 1.4701791483152775 0 0 0
133 1 3.4476676469031293 0.002771657141900974 7.18582786230285 0 0 0
66 1 1.5373477837446217 0.030209106850281674 5.529891277415098 0 0 0
5 1 3.670122057348771 -0.06894910682513178 0.002079912851519433 0 0 0
21 1 3.334661281270406 3.1655515936119185 -0.038035287375500104 0 0 0
145 1 -0.025913001936837432 3.8041570774258364 7.080389231988938 0 0 0
149 1 3.2608971082173737 3.6258712577589503 6.784522609125767 0 0 0
140 1 9.267644109441225 1.606490493812255 7.189344777238809 0 0 0
153 1 7.18055389124986 3.526767684273741 7.042312770840808 0 0 0
11 1 7.064534498038612 1.9271749764029449 1.8691517776514759 0 0 0
22 1 5.4709543088238 3.7060924217127753 1.9016384532515045 0 0 0
26 1 8.820350045128475 3.4238290924441244 1.6241365586404055 0 0 0
72 1 5.092089910519158 1.4335187535933969 4.272287279431708 0 0 0
75 1 7.546965499925916 1.6364735204684222 5.488071629877765 0 0 0
76 1 8.947354560488952 1.7437846211927899 3.623067943376692 0 0 0
86 1 5.300661011210963 3.517115433406399 5.315566559168047 0 0 0
89 1 7.043475384645834 3.2000974370298443 3.759380220019524 0 0 0
90 1 9.181404234236618 3.5556166498700095 5.449272067470087 0 0 0
136 1 5.254176170471373 1.9301497775515106 6.777651261756384 0 0 0
6 1 5.814353875052356 0.09020526072243398 2.1128730988824542 0 0 0
8 1 5.522671918962716 1.6852868682037059 0.13043513370289972 0 0 0
12 1 8.727488601941047 1.486152640809932 0.06500138845109404 0 0 0
25 1 7.228422135871601 3.757856424800014 -0.0402764931957158 0 0 0
81 1 14.337401220914046 4.053997972559297 3.769288179666759 -1 0 0
67 1 14.106270639320021 2.0853248935486337 5.345908012148446 -1 0 0
3 1 14.491133870832256 1.4553568907636005 1.9151535727467166 -1 0 0
65 1 14.340995202935378 -0.07208518498697636 3.8047678404245326 -1 0 0
15 1 10.648129864041472 1.4207040086051974 1.8114741080529462 0 0 0
30 1 12.800328396339854 3.411438126311481 1.5959799195543711 0 0 0
79 1 10.755712831141782 1.7043344526432453 5.082718158152251 0 0 0
80 1 12.550270319287298 1.6628654441673456 3.3798733967191263 0 0 0
93 1 10.878843511691844 3.3995689348021934 3.3797386600486434 0 0 0
94 1 12.381270048320081 3.559556726593157 4.9507241677743625 0 0 0
157 1 10.933951810963912 3.3844799576191464 6.9991775994939145 0 0 0
78 1 12.635596866465121 0.017041256284109352 5.474977572675387 0 0 0
29 1 10.720180545329413 3.657482586615469 -0.014009498908185238 0 0 0
144 1 12.557859058287637 1.715819552180331 7.212941756934459 0 0 0
23 1 3.2778985012455912 4.878107192157307 1.7621814409511418 0 0 0
34 1 1.9440443445924793 7.468374959160851 1.705505872797891 0 0 0
39 1 3.8295840492755437 9.10824366194806 1.7409390647103162 0 0 0
84 1 1.648500762951997 5.636939849464991 3.247536642487613 0 0 0
87 1 3.376123988282075 5.52523729225365 5.328465522078095 0 0 0
98 1 1.791182089193187 7.679634821634231 5.608315322284646 0 0 0
100 1 1.946515001729632 9.035817737822683 3.395977299845003 0 0 0
101 1 3.5860948819542595 7.365811014228992 3.57898364787387 0 0 0
103 1 3.5666316600966943 9.181763145500248 5.294371283653643 0 0 0
35 1 -0.03670377730218455 8.908834085125239 1.5470566536486723 0 0 0
19 1 0.09368032455216557 5.461419346717908 1.4978816421481977 0 0 0
97 1 0.05995496993070404 7.291541988524698 3.6837535158330272 0 0 0
83 1 0.014259277891765154 5.4557213045273665 5.599819306712659 0 0 0
36 1 1.922135982750576 9.419923562822087 0.020853057315004347 0 0 0
165 1 3.8145327032197103 7.100980934785424 6.983663114411353 0 0 0
40 1 5.39768579171582 9.080879234085831 0.049929699950880674 0 0 0
44 1 9.408126148437347 9.036861779591167 0.18223618729263374 0 0 0
27 1 7.262064564201243 5.239352991020519 1.7321623431232336 0 0 0
38 1 5.239215211677356 7.177771925182627 1.7661013098117295 0 0 0
42 1 8.973170584284814 7.106983734571235 1.670421386175464 0 0 0
43 1 7.4907896821359845 9.104501992157186 1.8124084867430146 0 0 0
88 1 5.129212140643266 5.439627369475585 3.847497355831868 0 0 0
91 1 7.387450600319803 5.326702413834076 5.449487175256906 0 0 0
92 1 9.096203248883917 5.606027318882241 3.558149671150015 0 0 0
102 1 5.389467992051881 7.3146625699346925 5.316452864832549 0 0 0
104 1 5.484788705190125 9.197718728042002 3.454503122188901 0 0 0
105 1 7.4474798763711805 7.205087649009477 3.4979765916107715 0 0 0
106 1 9.159336194473484 7.354495240969638 5.636486140263145 0 0 0
107 1 7.319131325326103 9.18750012953163 5.0753479933450105 0 0 0
108 1 9.184851518250044 8.947449524152914 3.518719484868908 0 0 0
41 1 7.252191663212339 7.3605821963815234 0.031263679096739404 0 0 0
24 1 5.2870888918711865 5.422489271896862 0.03629477210449631 0 0 0
169 1 7.150629223811849 7.46203100574304 6.77060939545871 0 0 0
156 1 9.13408097339941 5.238556288379057 7.054909771657373 0 0 0
168 1 5.201398761565251 9.52354770352558 7.197323410528812 0 0 0
99 1 14.48309991311351 8.94430412641025 5.591849524285335 -1 0 0
31 1 10.776665455692262 5.276958270659039 1.7061168012758277 0 0 0
46 1 12.81995969855884 7.021551194447253 1.7135856635922204 0 0 0
47 1 11.365134734647233 8.762530650277842 1.7287191503595907 0 0 0
95 1 10.887256540491743 5.300651686096554 5.310979759009586 0 0 0
96 1 12.493564845916012 5.228445836008528 3.3938441224756453 0 0 0
109 1 10.888130395015974 7.246126339771736 3.530820736285035 0 0 0
110 1 12.771095384410332 7.118477225290389 5.589936413663033 0 0 0
111 1 10.905324561014343 9.136399213982369 5.4307305277445215 0 0 0
112 1 12.809217792375735 8.884203098639569 3.7137791455377753 0 0 0
45 1 10.956409829847129 7.005239253634278 -0.06599021760769735 0 0 0
160 1 12.46050226881945 5.177273516264537 7.067461211403895 0 0 0
69 1 3.579190094044224 14.404232748514033 3.7464057014948575 0 -1 0
115 1 0.0011583941757873362 12.715078165694855 5.369177904082456 0 0 0
113 1 -0.07224608423765133 10.672477368110737 3.9214900545589186 0 0 0
119 1 3.2646236455317292 12.510441248571691 5.3612777861667835 0 0 0
117 1 3.5242107050376976 10.7690610315653 3.3471535837543285 0 0 0
50 1 1.3444302061057622 11.151295216926782 1.9324157600999958 0 0 0
55 1 3.6587008110720123 12.805691743667445 1.8356055271828315 0 0 0
114 1 1.4476063196277609 10.69967159997224 5.651558364844846 0 0 0
116 1 1.5869389921438637 12.737055571087307 3.5647216979706053 0 0 0
181 1 3.6981287552345017 10.964800723507423 7.218797860305855 0 0 0
180 1 1.8262591618391133 12.741616281712508 7.1490336501800735 0 0 0
1 1 -0.03998205116300406 14.514066389297497 -0.03111142403647804 0 -1 0
56 1 5.358347408713027 12.664397629201298 0.10600249466376209 0 0 0
54 1 5.931009305003984 10.863708788082803 1.8075146238897855 0 0 0
57 1 7.4375993620872904 10.980689215422762 0.10358827061364848 0 0 0
118 1 5.399171388034472 11.11015820693839 5.112136576614461 0 0 0
120 1 5.463423035834602 12.658554605123596 3.6114607743150704 0 0 0
122 1 8.92594199895466 10.976765966659494 5.325411898446013 0 0 0
59 1 7.275169859487598 12.583373935129238 1.6928083429740504 0 0 0
10 1 9.129741996557534 14.440827901494552 1.8288914724714007 0 -1 0
73 1 7.53821042713063 14.2262868967684 3.7449441069635023 0 -1 0
124 1 9.209631935580001 12.598110852572747 3.2840598287576013 0 0 0
58 1 9.293154028678126 10.724122011522672 1.5487676370241594 0 0 0
121 1 7.284872786277768 11.136039233967935 3.560781372317808 0 0 0
123 1 7.196501143147778 12.685582010229837 5.5059368576778835 0 0 0
70 1 5.45458379814822 14.155803391384701 5.7678651524249025 0 -1 0
74 1 9.115592749177729 14.36913892149869 5.524043982456359 0 -1 0
9 1 7.2123760278778795 14.331086736728714 -0.008025047191967932 0 -1 0
185 1 7.2746117938950166 10.507459266184666 7.069528714170473 0 0 0
137 1 7.478873485222569 14.445467319919715 7.144028945485804 0 -1 0
184 1 5.279922092521786 12.58122962131333 7.189860150025818 0 0 0
14 1 12.538363949466827 14.45387551228551 1.4514562507636795 0 -1 0
77 1 10.840882819140903 14.155606144794744 3.5401870830712943 0 -1 0
126 1 12.599101222664755 10.738049115991283 5.469865549193754 0 0 0
62 1 12.953894301924224 10.9302092708814 1.5457089935076636 0 0 0
127 1 10.760769782262003 12.519029742846271 5.547876319436631 0 0 0
63 1 11.16170684896161 12.722903246958678 1.6747583073271748 0 0 0
128 1 12.61010847738931 12.3630905594362 3.9716167944395466 0 0 0
51 1 14.085056857506823 12.766723662757622 2.1083456203407023 -1 0 0
125 1 10.817488309770301 10.905375780867088 3.373122578048749 0 0 0
141 1 10.901398208061803 14.5039482724249 7.169329356138621 0 -1 0
135 1 3.4228292133134617 1.6733566654063279 8.79466919316416 0 0 0
146 1 1.7604183099982715 3.658499960502366 8.997529975071604 0 0 0
196 1 1.779226079879416 1.7616322254655274 10.64030542484421 0 0 0
199 1 3.202578263162563 1.8398062514579732 12.698846677026634 0 0 0
210 1 1.6568164759457886 3.379043559769157 12.468436959383673 0 0 0
213 1 3.5956830231700776 3.386035633647074 10.788354687062215 0 0 0
197 1 3.459356120269254 0.021052926801334127 10.610089013229853 0 0 0
132 1 1.2364140132649257 1.8535030276106883 7.258061241831887 0 0 0
130 1 1.528991890036055 -0.0487673159758053 9.004744404630483 0 0 0
194 1 1.4828336056387128 0.04507035378442408 12.611850158932342 0 0 0
4 1 1.7454481438687384 1.6918653328051532 14.519195902953967 0 0 -1
139 1 7.259975125289577 1.828240208304387 8.747682903621262 0 0 0
150 1 5.249118367843036 3.39342920063622 8.982751699335937 0 0 0
154 1 8.934837758258858 3.5003739641786153 8.71688074723854 0 0 0
200 1 5.371352885630679 1.596694275833232 10.793325915306788 0 0 0
203 1 7.2346524052244146 1.7754998327901559 12.77277213296141 0 0 0
204 1 8.864616581616358 1.8366097157023926 10.935243217259647 0 0 0
214 1 5.280385475820051 3.2745300718717796 12.970787917994496 0 0 0
217 1 7.066081084564037 3.6784341539618692 11.007210208953788 0 0 0
218 1 9.04980288071237 3.5428924103220525 12.730941953874543 0 0 0
134 1 5.4843475360488405 0.2821249966263851 8.757101512826415 0 0 0
198 1 5.563569014551119 0.2390094357702173 12.733005953401605 0 0 0
201 1 7.650615060373976 0.0004162501397352303 10.753338630488189 0 0 0
195 1 14.514800295826337 1.8315651369443016 12.849961320128587 -1 0 0
209 1 14.484629186173029 3.927551187245628 10.976864293067425 -1 0 0
16 1 12.63028076315823 1.6159319952419062 14.52703330915552 0 0 -1
206 1 12.62698208823278 -0.021868556179304832 12.765659779178362 0 0 0
131 1 14.4236826911723 2.1660084147224428 9.112363280873037 -1 0 0
143 1 10.869769288928747 1.7649316045933479 9.149933485218186 0 0 0
158 1 12.680981791713009 3.665932660104496 9.11596385577586 0 0 0
207 1 10.896134177635453 1.573951769276743 12.808933105390164 0 0 0
208 1 12.938400534151706 2.0012269479592835 10.955623844832353 0 0 0
221 1 10.90991192384745 3.616164720375733 10.641593692139525 0 0 0
222 1 12.42997330445384 3.6600244125990615 12.622666749383425 0 0 0
193 1 14.316412563178105 -0.012785936369680093 10.94687779073091 -1 0 0
205 1 10.770205737706805 0.01585176625572693 10.790622923740779 0 0 0
129 1 14.324103747963727 0.033688998056508115 7.261074159897415 -1 0 0
17 1 14.503157281692422 3.569642045426538 14.46075848172325 -1 0 -1
151 1 3.6304177641934308 5.199571789963701 8.920233816909136 0 0 0
162 1 2.1089058081636036 7.112965939159724 8.967907952716764 0 0 0
167 1 3.6256114095181515 9.074209117587257 9.14772150006061 0 0 0
212 1 1.9220581999099393 5.5523360008643845 10.826420520878484 0 0 0
215 1 3.476264569240214 5.141096439530817 12.635510422453534 0 0 0
226 1 2.117652641914121 7.376261988085657 12.716703357063352 0 0 0
228 1 1.950939914478478 9.015513767990218 10.857368994077849 0 0 0
229 1 3.985663332820244 6.938391895563628 10.929453181125858 0 0 0
231 1 3.9812840131035587 8.990440080671563 12.614413029671866 0 0 0
163 1 0.25243249996440653 9.243033722280279 9.17397084594601 0 0 0
211 1 -0.04161049072193457 5.670587006263463 12.64399397605732 0 0 0
225 1 0.1742173948349084 7.409913845225967 11.0142339254623 0 0 0
147 1 0.03957297250848596 5.279896702205558 9.020939502915736 0 0 0
227 1 0.23012408289999878 9.0816488794141 12.923511726500086 0 0 0
33 1 -0.06085891144824451 7.144383748536822 14.403254703786398 0 0 -1
20 1 1.7599593012727457 5.524617353718168 14.46473207670195 0 0 -1
164 1 1.834988220533352 9.031127656570565 7.366639763683135 0 0 0
37 1 3.7019195113640584 7.3659509010142585 14.204359630001678 0 0 -1
148 1 1.7973517372802317 5.454718427077057 7.265021111320198 0 0 0
166 1 5.407759595360131 7.286873052739523 8.966704071990645 0 0 0
155 1 7.162108018620549 5.581027184748745 8.85306599771461 0 0 0
170 1 8.950969764408432 7.2021742884810065 9.064166135195748 0 0 0
171 1 7.05789013887184 8.965534803706682 8.91978387093417 0 0 0
216 1 5.296065876415498 5.019214743112193 10.833237329943463 0 0 0
219 1 7.115358957997056 5.2978621919654945 12.67370318334298 0 0 0
220 1 9.044237950843636 5.1254613763457995 10.75536889576099 0 0 0
230 1 5.653293828418209 7.2606069812060285 12.962219006458218 0 0 0
232 1 5.401237598745668 8.759467653571113 11.162382544694314 0 0 0
233 1 7.118223178600539 7.065529819806308 10.836369270474147 0 0 0
234 1 8.939815968532102 7.245267759241565 12.752298924115474 0 0 0
235 1 7.298734855227702 9.160333533776658 12.91594725463281 0 0 0
236 1 9.23687599422386 9.212605228292876 10.992795714260923 0 0 0
172 1 9.15179470342148 8.979299603460973 7.291389307403068 0 0 0
152 1 5.3521898406709925 5.31282789931573 7.315131439184502 0 0 0
28 1 8.952547654250266 5.515417755217873 14.482190651718865 0 0 -1
176 1 12.580127216376372 9.004531788701687 7.321613029344435 0 0 0
159 1 10.805430780248846 5.329377449548251 8.986037250427197 0 0 0
174 1 12.9274180015207 7.33860142649069 9.16483050483884 0 0 0
175 1 10.898503732715065 9.114792530500992 9.212732473409895 0 0 0
223 1 10.615445667836328 5.573371962705092 12.759870172407073 0 0 0
224 1 12.859044350599213 5.50406546206306 10.874379147814478 0 0 0
237 1 10.539427139065474 7.026921646375806 10.699093839279646 0 0 0
238 1 12.599791768431427 7.077950986841346 12.634951205029001 0 0 0
239 1 10.780635129372001 8.953060753786001 12.823875126733476 0 0 0
240 1 12.811659286734606 8.936551966245693 11.079277152644913 0 0 0
161 1 14.341791172806774 7.273492264805123 7.306318236765031 -1 0 0
173 1 10.93712833115008 7.134357442254667 7.413413044438629 0 0 0
32 1 12.537805229762233 5.361241143657143 14.209837383214502 0 0 -1
48 1 12.617138044285815 8.830329557015189 14.18470210663076 0 0 -1
179 1 -0.009464119185713216 12.817198657554894 9.333702207118616 0 0 0
243 1 -0.08478989545240623 12.59400769904217 12.603079374879998 0 0 0
49 1 0.07873324077212551 10.970712615170429 14.313423652369709 0 0 -1
178 1 1.6913204929297214 10.977472986744113 9.500687170272624 0 0 0
183 1 3.6914671508865453 12.690381113592077 9.293189827034876 0 0 0
242 1 1.8723198999213189 11.031909991108286 12.36983581986976 0 0 0
244 1 1.6262873261380315 12.939279229142658 10.860830073175402 0 0 0
245 1 3.9521394658666367 10.85548023533948 10.946620639830737 0 0 0
247 1 3.6041569791261625 12.896249623640026 12.545103987708051 0 0 0
177 1 -0.08409474001816641 10.880699161571243 7.257732446352911 0 0 0
52 1 1.616626151484616 12.959633780450943 14.318504649003657 0 0 -1
53 1 3.616233277184822 11.116336113010837 14.458465887381411 0 0 -1
138 1 8.976348648178584 14.47062722568622 8.872427619382007 0 -1 0
60 1 9.15872159750009 12.725686260151257 14.5186277122187 0 0 -1
182 1 5.404124663219889 11.032955312856863 9.026320673570797 0 0 0
249 1 6.723654463179773 10.895268156697574 11.06489856464489 0 0 0
248 1 5.551773890604888 13.046663795878352 10.677114521244965 0 0 0
187 1 7.094811685031205 12.473034576407848 8.94863397023 0 0 0
202 1 9.056947312332015 14.434624009957766 12.681518351062735 0 -1 0
246 1 5.4720052887679556 11.085761030097974 13.118826137094933 0 0 0
252 1 9.10284260135637 12.262388966976117 10.7949696641366 0 0 0
186 1 9.163637863670303 10.622361565810811 9.10943829351271 0 0 0
251 1 7.1479078971972 12.779887286731746 12.657328990535174 0 0 0
250 1 9.026762312270987 10.926056673371273 12.795546007469566 0 0 0
188 1 9.075457752954575 12.42512305187771 7.556246875978692 0 0 0
189 1 10.776446471046398 10.849182935306898 7.350089246951767 0 0 0
190 1 12.934060435935379 10.644018664698494 9.134356508751543 0 0 0
256 1 12.605391224957279 12.694247444696233 10.932125305499468 0 0 0
191 1 10.603554786883027 12.871867413080164 9.066763612391865 0 0 0
255 1 10.924794291104897 12.701236390955904 12.655388102227768 0 0 0
64 1 12.673219287121604 12.851773338648846 14.311356614609833 0 0 -1
253 1 10.862574487671449 10.914500873510498 10.954884252807028 0 0 0
254 1 12.601855256668903 10.806642994206886 12.873807694424123 0 0 0
142 1 12.702796418719217 14.484095206374342 8.960421792438709 0 -1 0
241 1 14.5239617566168 10.784805026853489 10.97687761097234 -1 0 0
192 1 13.08437398979983 12.702162193921884 7.233099393613117 0 0 0
13 1 10.769765395950763 14.47002593981582 14.333720913668731 0 -1 -1
61 1 11.10934633185825 10.962646541304176 14.471559778648118 0 0 -1

Velocities

7 1.8835369844855097 -3.0488540743554498 10.285925926274615
18 -6.049907898021556 -6.019350055291261 -0.9660476947114985
68 -0.16866151055036988 2.745349116442108 -1.5567033907623706
71 -3.799071175739354 3.8799459668448746 -5.878585061703628
82 5.400601297904341 6.394761703788371 2.787128249334628
85 -0.9502207770973695 -0.7863036565939981 -2.6774525115961816
2 -2.6354600279518254 8.652351539010787 -3.7567695713827303
133 0.3392407267418323 1.0281355439012863 8.702738318131123
66 3.5834222714368154 -1.6949018576724724 8.43916368436135
5 0.4811401185143138 2.8449675723976657 -1.8011075149520908
21 1.6638777162222362 -4.140387268270281 5.542206947957394
145 4.704750628781939 -0.3809006521109008 0.8677569488977167
149 -2.896924979509076 2.2585294724550606 -1.303339560085992
140 -1.2698018872081012 4.518435487573837 0.5786630422999622
153 5.5324748068336405 1.6666471067726147 1.6279222284572188
11 0.5657095696595091 -0.9830660176260514 4.871660940971092
22 -2.510807657345945 -1.4552827848228418 -1.9230622419723005
26 -1.8587810929146575 -2.405820591765504 0.4199938596622636
72 -0.2897273456901665 -1.949009467822448 0.2459354956130723
75 1.6735524829793549 -7.902925637222947 2.073837598890764
76 -3.454153696962485 -0.8877405575329735 -4.733517960260061
86 -0.839104499841945 4.290412672396299 -0.5978521447614181
89 10.569548676295407 -2.267064040866898 3.660198090206624
90 -1.9587903999828566 -7.066300042074419 -0.705765963151958
136 -1.9611657707091075 0.7669013770789891 2.1440146526253923
6 1.5956685764111096 2.7248346848780236 7.321679704697234
8 -2.2560041492131266 -3.3911246285208643 0.2111530266343998
12 -1.0740212792313786 -2.8295793737029173 2.379076513902206
25 -7.097662341061123 1.64327482678866 -4.445949060596353
81 -1.4726379671067198 7.005131040505333 -1.2572987730636873
67 -1.0851469986856703 -0.7218138087941647 8.696727909042048
3 -1.5142041287576682 4.416814866465049 0.9340384214779331
65 -0.5072978720131361 0.15106526057040023 6.521717159160883
15 -3.6925067451145046 -3.8119273050386395 -3.764607615030063
30 -4.614983013019031 -0.2449120127893306 2.897991183281679
79 0.032477459910456835 -6.078727617601973 4.458682704553306
80 -4.851223034883868 3.069217023911867 8.268109974938413
93 3.491123280539885 1.904175248787487 -0.2905093096292
94 -1.7445228080558364 0.1347107741120478 3.7230379080698963
157 4.187037185930441 -2.202508523134652 0.6038397866312684
78 -4.083129566463487 -1.4905112542602243 -2.3454256379737375
29 1.7260196569728494 -2.1372738658053354 -2.3393330300403057
144 -1.6843107117272726 7.768171949044367 0.09277732768524112
23 -6.40581094401792 5.307502493045731 -2.672759033600259
34 -8.842839499699103 -10.432245763829206 -0.729076633224865
39 1.5357069166183708 2.681838801423939 -1.8244204075635901
84 -3.8833120958393135 7.293279545941076 -2.044965902957294
87 -2.563843198852356 -0.7447988747373958 1.2050540908829774
98 -1.040238604964861 -2.917080686454922 5.471909880578837
100 5.407846281982575 -3.2020222458077874 0.4553269254393298
101 1.0277690584127805 8.969509020452275 1.5879181472147363
103 0.0446084561586742 1.1806901857612084 -6.262317823810416
35 -0.6541537654962705 -2.463153335310736 -1.2373442956256457
19 -0.1569813572552856 0.5210693291065154 10.835643557545234
97 9.738838449044577 1.3166251142041865 1.5674867050623156
83 -0.10864466398042717 0.5215327273106982 -5.016298082388102
36 0.3484572323383258 -0.26021446620260075 -7.516942279439882
165 3.9955496958525236 -6.077258569646067 3.5070696871782294
40 3.231256942182029 5.870983347672472 7.627676825075088
44 1.952983391550058 -3.913741706118417 -9.051613558998868
27 0.22607071668668233 -0.5080568569062964 1.161838241089459
38 4.18340613361039 3.802922950428865 -2.5396009336947007
42 -3.7863085633874825 2.6233715695320483 5.657944818185558
43 5.614671509853632 1.5776814872173186 -4.005102800170734
88 3.275720466728399 -3.0166534405404914 -1.9454197893106118
91 -5.897379392930466 0.8634837035910969 1.0848242896284541
92 -1.4219690318848264 -0.43032708573386486 -3.957230223146139
102 8.63177940043995 3.3306691267547026 -3.9588240933602377
104 2.5449029762298 -3.0836020090423144 -1.8571832979791918
105 1.5314960274576217 2.447056973913028 2.1715398713880987
106 3.354295815370701 1.2977166054082083 1.3829723808007093
107 -1.6512563035391523 -0.5164775082235157 5.235363496801743
108 3.9777595017853797 -1.5396082855940194 1.5736411656914961
41 2.5063436400149635 3.248194710653975 -0.9766936453710084
24 0.5637912764178549 -0.19460332039348271 -1.7427944539364182
169 3.5764787065089947 -6.067481990784979 5.342446092868138
156 2.8730577938234787 -10.21383610666804 3.7869237686004467
168 0.031672365752907806 2.2716191003660136 1.6343116545510172
99 -3.5449142719298345 1.2614114502756981 -3.3620533796119605
31 1.671036020419182 4.980600629736968 2.2172873489843066
46 0.19343455265096862 -3.0510065697893394 -1.8297005126939383
47 6.108730636428812 -9.333434107052126 -3.9452085818375355
95 4.197825325022476 4.638733889238494 -3.999552489054037
96 1.695476431633447 4.719366629835487 -0.3836584440192395
109 0.7020809890894447 4.9783278283897605 3.371992687439263
110 2.5687931679207576 2.2648325945394676 -4.247400224948165
111 -0.34391505231745434 -3.624781586645442 -1.5061548620479506
112 1.2509250772296 -0.05512796597856802 -3.1721760055871178
45 -3.6975710556698624 1.2415325155857875 -0.09988622785868709
160 1.4721367899526365 3.457859526651945 -0.6467383357893187
69 -5.055299519191221 0.8442867934456425 -1.803158609649802
115 -0.7918533089899465 -4.34677115011643 3.8839673495616434
113 -1.056343716916775 2.9676631242149294 -4.000974570802747
119 -0.2643509667207061 3.419484033340736 -6.304710017275987
117 2.8523907950515466 -7.039767842115019 3.8181141017753437
50 -7.629575805682059 1.0557742337481746 -2.6365986746743917
55 -2.432744290330918 2.1407920236179634 -2.5095921880953673
114 -4.39049604351815 -2.1757479337548227 2.212664205824189
116 4.573904214752341 9.33240549624659 -0.5993178620488576
181 4.2768965679775235 5.067685732064065 -1.8248186571410183
180 -0.4440721266903078 1.9724254661366372 -1.4665216271388621
1 -3.0405683509453603 -5.443200795943127 -1.6500921978891436
56 1.1234448768982985 -0.5339567016035802 2.3288209410140217
54 5.7512653516264605 0.3871880993388127 -3.7271322200200894
57 4.842433706491927 -5.6928147259719655 1.4973983938353344
118 0.80035761180821 -0.6620152957216938 -0.3444587615218577
120 -2.636403452619298 -0.4738168283568104 -2.465269039842202
122 3.4320509341425782 -4.021806408651649 3.1977576047470753
59 8.141946503049816 -6.118700269297474 -11.312744323707035
10 4.635122303611396 0.09669868120290064 -0.7251734409744451
73 2.0381131529397294 4.183478223749623 3.0648424960642564
124 -1.753368785399889 1.9339120025763683 3.8568150729300945
58 3.991167741603688 -7.712338688706812 1.0489412419388398
121 0.43185838324293246 4.8903067617286995 -3.578535094428026
123 1.749921106244954 0.6996590727696894 2.02811537875936
70 6.164567603338573 -8.138067948150084 -4.356897772892065
74 5.562279127813014 -3.054643707700278 -3.776711375326769
9 -0.42172904967818453 1.324552102182157 -8.385483043119649
185 5.170112046698244 2.3839929914325126 2.542998917923843
137 4.8398809710062105 -4.883533259845172 -5.511347945731524
184 -4.600309399328004 -1.6528162512456113 4.804253388604377
14 -1.7351331932926093 -4.406662461525202 8.679010336525312
77 -1.3231538709443165 -0.14285101838440828 -0.7647155950924455
126 -6.825366144009401 -1.6511909550905728 3.953091541307935
62 3.8194739438909138 -4.212131938275484 -1.9093075453747839
127 -3.126645856551483 -0.25357760162775667 -3.2082527213725314
63 -7.751003263001208 -3.6262882454440617 4.3481703704132775
128 -0.08377453670030874 3.929165957010736 3.7688674512481017
51 -3.5867188754624735 0.6760789038837957 1.7545433862791109
125 0.29291878294792706 3.0673751234050117 7.264876931426246
141 3.3060257251728618 -1.0369704412409018 -2.233854475072208
135 -7.622866936032728 -9.736759703282575 4.668764409324951
146 0.9846153196509958 5.867301805945836 -7.32740896573262
196 -5.54461957106718 2.6079786686146416 -2.1494053845500263
199 -3.597204348892424 2.127111097068315 -5.22263547950504
210 2.064419859406877 -4.245723545618175 4.598628295683696
213 -3.687576985158714 -4.7940092570437445 -5.546731680623704
197 0.3753408303016025 1.5780076525449378 -3.9690373875945375
132 -0.9924527299312123 4.733630908283583 -3.4570135660593904
130 -3.040962880405563 5.503575424787475 -5.368097436352138
194 3.3285244924980235 -3.8517529556059755 2.343035979703289
4 -2.3894484041423714 2.0293180890841276 2.146141168988948
139 1.4417529261510615 -2.351037539632324 -6.0226380661182075
150 -12.735236730861123 4.742772404043864 -0.05652679355236668
154 -1.8115306996944895 0.5877688683208645 5.685341428595485
200 2.3121956092552405 -6.858936859457739 -0.0831305565286842
203 1.757196771572432 -6.545024848549253 10.328939048238562
204 6.813959773797862 0.8998365051613599 -3.45412096122681
214 0.443877175954749 10.269791297195887 4.182010237417654
217 -0.26880567873429223 -0.5589489981472936 2.5606682277460417
218 -4.7717376139500045 -2.2584457967714506 1.1218604971518615
134 -1.9143930695931357 -0.4214257125939034 2.9077724441359005
198 -2.0178926084542863 -0.16727503904059465 10.249985224532374
201 5.140662810107428 -4.155137496601064 4.986253079437171
195 -7.2359382690777885 -0.03284052473963637 0.7856591919874628
209 -6.7024316329646165 -5.709549990225721 -2.752484347150974
16 6.397681978441822 4.419552652415953 9.472276590839247
206 0.5916064925662556 -2.579003523893586 7.567723211021532
131 -4.8917085292712885 5.513933011308342 -5.291019963066058
143 -4.260542203887701 0.4237600436003911 -3.1071243692003248
158 -4.311519352024231 8.24350064732209 -4.250594458837769
207 -5.19074583635804 0.08721371608637277 2.487221602581398
208 0.9873811515238824 1.6025758950033904 -2.514753684252205
221 6.896868210665441 1.1952570236991127 6.414943098172014
222 -1.2537792385868844 2.4565885856955267 -9.907143697683635
193 0.8783529344969376 1.4924659333211812 4.521364012701242
205 -2.453619125826115 6.564446972319881 -3.2073938821361785
129 8.423075103991634 0.11995181043444919 -3.788171611703745
17 4.166022821594504 8.410919170372527 2.2201508631725
151 -3.1342725024243894 -0.7509347910838996 -5.962930444644402
162 0.759920796398806 -0.045634695497086514 -2.8845456332723107
167 -1.8563612193637282 9.618825880547828 -3.152160890644158
212 -0.20899822447551952 6.177768499791749 -2.761574966950705
215 -3.7794969778816006 0.2242864781820922 -2.9694579066463853
226 -4.066744295918964 0.33392707422906437 13.116556229396767
228 0.9346252160224784 -2.440741153205481 -0.12849576857611497
229 0.21605841925192631 4.105049436198308 2.2516484705274737
231 -8.27735523982065 -4.076567952413523 0.7098746604451166
163 1.3016564582722951 5.2711511018833495 4.7585092493943755
211 3.672976846103544 5.527277694475226 -3.5187100459256717
225 8.288964695348627 -7.172807586220449 2.754719979869986
147 -7.740367270956096 0.08720260643429957 -0.6611972194896817
227 3.002384006419666 1.2492913472403955 -2.910981803119141
33 4.727790487796089 1.1690401078274613 -1.1159602333786462
20 -1.519207218658037 -2.790064580954981 2.714006171277221
164 -1.7521953437153839 -2.76034340895299 -4.846376455968463
37 3.7384355795482476 2.0058280984193066 -3.7783154610205085
148 0.031218471140700532 -0.9409620877378072 1.9721159068050935
166 3.283197252100061 1.5316502456694125 1.6377057866725948
155 -2.1313310592052184 -0.7267496589598335 0.6876267996915697
170 -5.269034887779244 2.070157166305976 -0.19267274393181194
171 -0.9363456600723816 -0.8359515223909352 -1.3422340444605732
216 5.716562782100346 -5.892221310085686 1.7633601053842984
219 -5.697861820794262 -6.634420636679143 -4.892925187568977
220 -1.3049599413582265 -5.563890037981766 -1.2580870988916326
230 3.7502593540667557 -5.055117202577071 -6.704028913616145
232 5.374841943230425 0.6923354341909428 -2.004541465517083
233 -0.8769696759802998 7.0946589478702595 5.538721097625469
234 -4.794140217836316 4.114798355289709 -2.5224097158325556
235 -3.2154503785642903 -0.256347904838419 0.744838634595611
236 -1.3750845850845124 9.394546453425745 -4.309030107943691
172 4.577030845667712 -0.22455296089550247 2.065700483693165
152 -5.698845780752518 -3.3973680774873585 -3.339674169584292
28 -2.2995952611373993 -5.5307230283025035 -0.5787603963890033