LAMMPS data file via write_data, version 2 Aug 2023, timestep = 50000, units = metal

256 atoms
1 atom types

-0.3671436188746302 14.807143618873802 xlo xhi
-0.3671436188746302 14.807143618873802 ylo yhi
-0.3671436188746302 14.807143618873802 zlo zhi

Masses

1 63.546

Atoms # atomic

180 1 1.4052472585202331 1.7567125356121043 5.208584734622879 0 1 0
88 1 2.4431836395756834 3.338009079986534 3.7024579745085395 0 0 0
35 1 0.8191875072587345 1.84339138914262 1.986150703785551 0 0 0
156 1 1.718496702322187 4.341849317719529 5.755080968486328 1 0 0
249 1 3.506596422075142 1.7413318746894348 1.313635455642682 0 1 1
49 1 3.756461777692362 4.304193338476407 1.8089302627547266 -1 0 0
177 1 2.59543323619906 0.5739533131905413 3.277199901924782 -1 1 0
58 1 3.892703271293284 1.9713715542943184 5.347333331207899 1 0 0
86 1 4.16662738150823 4.353955948432664 5.535917261237159 1 0 0
84 1 4.569022548401349 0.01883423887276925 4.193580528130978 0 0 0
4 1 0.3912160076147091 1.3844431270497368 -0.2344672822735873 0 0 0
1 1 0.2062967537518453 3.143139537419059 6.551434512790721 0 0 -1
37 1 1.95468241540285 3.4294798747967943 0.14372105673625424 0 0 0
176 1 4.8305886362508765 2.9083582740564733 3.307095712589817 1 1 0
219 1 7.107036279844253 3.3908290742778378 2.265535565453685 0 0 1
8 1 5.75651819674973 1.1212941796639457 1.3394869349420109 0 -1 0
161 1 6.868186744598954 3.735070442496373 4.9767274170150335 -1 1 0
164 1 6.223605815672167 1.1291047932940725 5.679818112490342 0 1 0
107 1 7.039949128674855 1.161691499777469 3.3372180990474956 0 1 0
122 1 8.300479583038255 1.6665912216752394 1.1861041120677611 0 1 0
124 1 6.953958346518392 3.1244494208364686 -0.27831426372002976 0 1 1
74 1 9.252482563187776 0.9424570747753205 3.507829807136859 0 0 0
7 1 8.946789769393432 3.2907679407338533 3.6532189876090753 -1 0 0
213 1 9.669594863464996 4.146948920828636 1.3044500319763208 0 0 1
198 1 8.209476691339757 3.3016711114924067 7.09879327811672 0 -1 1
191 1 9.56066593755324 1.0669902081332872 7.042568787134013 0 1 0
114 1 14.78580349689268 3.7270423519881515 0.7139798501353278 -1 0 0
184 1 14.523079425268522 4.507026510369936 4.797720745455571 -1 0 0
116 1 11.11145253943676 1.7755122919900357 0.23789795439025274 -1 1 0
2 1 10.349045550702847 -0.14427393637412914 1.6095065060031353 0 0 0
81 1 11.23879742996079 2.9761307774767847 2.829037829065836 -1 1 0
85 1 10.91869508538688 2.289833356249913 5.155609333358647 -1 0 0
222 1 14.350852142795654 1.2431264252568932 5.441968052716306 0 0 1
59 1 12.291441327351373 3.8696644445205024 0.7922719214221225 -1 1 0
27 1 14.283704165477037 2.600275324879694 3.544783218692004 -1 0 0
166 1 11.968719348534782 0.5280980135257904 3.6374909225675616 -1 0 1
225 1 12.274276026099049 4.195059994398214 4.639936315012778 -1 0 1
201 1 13.02407098381715 2.9323556572569127 6.5494822194757445 -1 0 0
128 1 12.09357150183685 0.31032597186031863 6.304331181089552 0 1 -1
46 1 10.720592633628373 3.9094885294619104 7.178595282315937 0 0 -1
71 1 14.484332459512926 0.3546634975744698 3.167270665013428 -1 0 0
138 1 13.385619135529776 1.709882183826311 1.4925378323622511 0 0 1
207 1 0.47011773561773307 5.219414113196557 2.950497727953243 1 -1 1
134 1 0.7784809594663913 7.2164446459548115 4.754382698451013 0 -1 0
94 1 2.4634078463287956 8.913051851881878 5.74872524880038 1 0 0
203 1 2.747131352343025 8.239333672663152 3.548791240317449 0 0 1
112 1 2.009738291876101 5.807220331454911 1.3259135833100284 0 0 0
97 1 0.19182352967273408 7.868904112803753 2.685299577127164 0 0 0
91 1 2.623762026855777 5.75811417593724 4.04429238797971 0 0 0
244 1 4.073858964534674 6.827654832035405 2.0962524180056286 0 0 1
169 1 2.5554142707136718 6.471611395450136 6.57349337395618 0 0 0
229 1 4.529341922517705 7.192274233800833 4.537292358106093 0 0 1
32 1 0.07054459499088223 8.258731281044883 0.24100011639737418 1 -1 -1
26 1 -0.1388688777799559 9.133560562077024 6.346082808578434 0 -1 0
113 1 2.45564114272929 9.626790077689492 1.1437390363728097 0 0 0
55 1 4.2608064637554826 9.7480022232336 4.654128910462604 0 0 0
245 1 6.373585241949648 5.976397273045426 0.5631415219012984 0 0 1
21 1 6.4405747279754895 7.529217847591635 2.0846525125173976 0 0 0
121 1 8.411316267120934 5.723900706838606 2.6964498784981874 0 0 -1
87 1 5.244004276323843 5.202237684748348 3.6254760548460485 0 0 0
141 1 7.221824911391017 6.828816257340903 5.057953264386358 0 0 1
125 1 6.789470807503599 5.188748123924318 7.059319196068359 0 0 0
42 1 9.051518909157501 4.92964498367764 5.52042064308763 0 0 0
105 1 9.202074113614033 7.813473212242595 5.945624655884971 0 0 0
181 1 8.751538446017465 8.064945535012281 3.4289152013505255 -1 1 0
185 1 7.9668514932039365 8.632519048969737 0.39224986001646256 0 0 1
76 1 9.712396084610445 7.311415107116075 1.690513968440985 0 -1 -1
22 1 4.88777936816346 8.527626599152578 0.06965701791986029 0 -1 1
38 1 4.802285264420381 9.055582772199287 2.458348630292099 0 0 0
209 1 6.915303715653589 9.136762157453951 5.625597850606695 0 0 0
195 1 5.351373386995399 7.938799956870518 6.58546924872771 -1 0 1
239 1 8.786988737944007 6.12701768585615 -0.15949703837910995 0 0 1
215 1 11.373946940583835 6.1863478161303 0.45090498373312005 -1 0 1
230 1 12.687176169070234 8.167540010384256 6.137453337299379 -1 -1 0
10 1 13.06635612909932 5.510316086905555 2.5561381331194815 0 0 0
48 1 13.544928297629971 5.64207941229962 6.817968357009129 0 0 -1
217 1 10.703570106179493 5.442946855375251 3.195727154014012 -1 0 1
150 1 14.264444063363381 6.365156852669778 0.5724358527447038 -1 0 0
188 1 11.144716522404611 6.3215840030208215 5.935335399924477 0 1 0
62 1 13.661530369355326 7.008195850735722 4.477030821564746 0 0 0
51 1 12.70820343629215 7.8799045618473915 1.5254221417692797 -1 0 0
152 1 12.958257256844815 9.225250843940714 3.6778362419685475 -1 0 0
237 1 11.119504797865272 8.154622478624177 3.8952091526614394 0 0 0
133 1 13.073541258558723 9.490925872437465 -0.253649177116024 -1 -1 0
147 1 0.9806694967423428 14.448881316186839 1.7851056790346487 0 -1 1
179 1 2.9921730322118965 14.444174017930129 5.9848817592335575 -1 0 0
12 1 3.6418097126374924 14.643581025230887 1.0706907896901556 0 -1 0
246 1 -0.21486673073316578 12.907153106626964 3.2503664636604346 0 0 1
28 1 1.0013642339050088 14.661122458298403 5.001220949910001 0 -1 0
50 1 2.186046377369555 11.279666166701338 5.067996599308639 0 0 0
208 1 2.8010771061495325 13.605231030268925 2.875073953153602 1 -1 0
39 1 3.269780641757473 11.172259436635786 2.887043995529479 0 0 0
5 1 1.0647327137973028 11.442892037214145 2.1085192444266965 0 -1 0
68 1 0.7036890907667588 9.917223650676599 3.741879666657291 0 -1 0
9 1 2.4660450038289787 12.894318997707233 0.3338259054324837 0 -1 0
13 1 -0.08648809729137852 12.081799325179828 5.720970816596408 0 -1 0
173 1 4.499959492505392 11.310983183436505 1.1280081815672338 0 -1 1
29 1 0.596864026991982 10.518659404087487 -0.3062112285192773 1 0 0
165 1 -0.3365136583881956 14.179302854188931 6.889265991476718 0 0 0
52 1 5.563565873402483 13.508945725053946 2.2750222668424835 0 0 1
167 1 8.861528970234197 14.750199228803995 5.443782502868339 0 -1 0
210 1 8.47193737923129 10.07150498930832 2.6367353233824744 0 0 1
126 1 9.640643418049061 9.770770506861378 4.879287866913215 0 0 0
233 1 9.296254791038152 13.425614654869658 3.2934226723976217 0 0 0
220 1 5.711607699999308 14.212068169649482 6.307635247259229 1 -1 0
24 1 5.459759328825429 13.422558193074241 -0.16488287959231657 0 -1 0
75 1 4.827336696714264 12.050941616177006 4.7047727980727645 0 -1 0
223 1 6.256678816664145 10.570697459676223 0.1260760251371459 0 0 0
106 1 6.303317359493718 11.033009994800961 3.0715421409052794 1 0 0
69 1 7.1483155823460205 11.676204452327369 5.239129844921622 0 -1 0
73 1 9.3482078572849 11.937972587915198 5.799241845710231 0 -1 0
252 1 8.008603834769481 12.122822874723543 1.602938464215637 0 0 1
227 1 7.67417149290033 14.6473454169542 1.2847110659619463 -1 0 1
20 1 7.005154990358968 13.876330375546384 4.249440058423414 0 0 0
193 1 9.148271853895844 10.703992157591113 -0.0074850174616062914 -1 -1 1
221 1 4.767867484804636 11.0537900242684 6.650851384278869 1 -1 0
175 1 8.320911055820428 9.910255272121336 7.08757743862236 0 0 0
115 1 10.74877255589918 12.663329818099973 1.1216456935836159 -1 1 0
64 1 13.66152508856986 13.882083292453858 4.851634875416678 0 0 0
226 1 13.126636843273566 11.474085715683387 3.09396752582829 -1 0 0
145 1 14.087326985510538 9.9387077725893 1.8281298623027595 -1 0 0
57 1 12.3254556794493 13.640809591217899 2.3683793152753743 -1 -1 0
192 1 10.623153472353401 11.20424103469625 3.3413556679917793 1 0 0
45 1 10.92011743610709 9.940645950136538 1.3115276166692156 0 0 0
6 1 11.574651418121249 10.28602371267705 6.121769326976744 0 0 0
61 1 14.213259411469744 14.451960562013392 0.960202956210835 0 0 0
206 1 11.315615437657332 13.559144494363819 5.1174390982433975 0 -1 0
214 1 14.172155947867475 12.218353253954094 0.7536599421973003 -1 -1 0
151 1 12.854100669932565 12.133378939115186 7.075084503305835 0 0 0
117 1 4.357723977467811 1.0933272732107961 7.481197999203447 0 1 0
155 1 2.636821482313272 1.7592403894897628 10.731334247589558 0 0 0
254 1 4.501972279361025 2.4103767241450513 9.607650577560216 1 1 0
139 1 1.092151299962143 0.34863573418662297 9.692038872860758 1 0 0
153 1 3.139631231076889 4.550463263657001 9.972748741742583 1 0 -1
98 1 0.21217835345909353 3.6765266043951117 13.733845899876483 0 0 -1
104 1 2.396724579495151 1.5617859459468906 13.39883679230148 0 0 -1
250 1 4.188042559054876 0.05558318436873416 11.360683339975136 0 1 0
100 1 3.4710315833372047 4.392662279958301 12.558846533904731 0 0 0
90 1 0.05032831031249391 1.6137517485253805 12.253014925591591 0 0 0
118 1 2.7694730355375787 2.7137810912785802 8.0877947827827 0 1 0
149 1 0.14710736975443994 2.6357961505217 10.049419346757226 0 0 0
216 1 1.80593099172679 0.679361582273527 7.421910469947637 0 1 0
162 1 4.770687550810016 3.578076266953516 14.771778125439228 0 0 -1
109 1 5.000903152405819 2.3122360414287386 12.502378509273427 1 0 -1
3 1 6.933893732100442 3.39088073892745 9.099850557390667 0 -1 -1
194 1 7.221397735207194 3.1621763295327354 12.267900487474977 0 -1 0
63 1 4.75129856574375 1.0595166966631013 14.27910004307417 0 1 -1
197 1 8.840702141671548 2.141355608088898 9.629419105120496 0 0 0
80 1 6.71916103214556 0.7609539765766118 10.72402713649852 0 0 0
140 1 9.053114576605447 2.627842325904422 13.986386221907052 0 0 0
93 1 7.058161013972909 1.1491728894667872 8.092897714867014 0 0 0
67 1 9.104067666002598 1.1848290733935916 11.876540552251445 0 0 0
240 1 5.110974750616219 3.376279948039143 7.475829925044647 0 0 0
135 1 5.607019191145696 4.2360997235154265 10.665342013180215 0 0 0
241 1 8.740926230759124 -0.2405124620190625 9.49630928319468 -1 1 0
103 1 7.437326903701343 1.0065624781701066 13.750807968021817 0 1 -1
170 1 9.660200686436339 0.18765300886552982 14.522124817937499 0 0 0
168 1 13.65939086266755 1.147910045275679 10.193742537078188 0 1 -1
234 1 10.80344065923218 0.025203128941947317 10.106476826740995 0 0 0
54 1 11.259852090781434 0.9621653185206929 12.84237575561963 0 1 -1
111 1 13.835074156755581 3.654723791075881 11.967237862745156 0 1 -1
204 1 11.009374540436148 1.9431144988199884 10.428849961121221 0 0 0
60 1 14.533449164254526 1.451913830087974 7.784332898939873 0 1 -1
123 1 11.938841792455875 1.3203633479977182 8.434084855575545 0 1 0
242 1 13.27676631296635 2.380685392498512 14.011825138374746 -1 1 0
40 1 9.861125215984686 4.397550622121121 9.387804738264684 0 1 0
137 1 11.527448210974342 3.2644011748122845 12.422423418325435 0 0 0
132 1 14.162730813508581 -0.23744864773364935 13.13088183733476 -1 0 -1
200 1 12.743235302329412 3.398366060317269 9.09928543102505 0 0 1
110 1 10.614178602769494 4.181589684475556 14.247065182649418 0 1 -1
15 1 4.238546325945155 5.934262732253338 8.016342413212227 1 0 0
211 1 1.3704386362165237 4.902110900692105 11.34157536262703 0 -1 0
238 1 2.2096087594224865 6.740699093242264 9.004882238785918 1 0 0
43 1 4.549265749234596 6.422812188549721 10.765423510002952 0 0 -1
78 1 4.576935965464152 7.6804329997972705 12.870183433743916 1 0 -1
186 1 1.104861109579392 8.940141118792944 8.2532230249977 1 0 0
248 1 2.4547279340310735 7.03602146527858 12.10257811257075 0 0 0
199 1 0.5563793441737487 7.864230627380579 10.564589524528042 0 0 1
99 1 0.38191695446787055 7.528479420340727 13.281942775011563 0 0 0
136 1 2.9538977932507047 8.69262438754674 10.410469988011242 0 -1 0
205 1 1.6301634071257165 5.324662170317277 14.107858302581166 1 0 0
172 1 1.331514225756835 4.772336858573557 7.895135900728887 1 0 0
253 1 2.495503076076684 7.868244971411414 14.339955349137359 1 0 0
130 1 1.318960415772645 9.245219647321836 12.313668439585637 0 0 0
157 1 3.5887085584484035 8.64911084868427 7.863976326580099 0 0 0
196 1 0.13707565367610552 7.0258893703631715 7.384510790863178 0 0 0
101 1 4.2396548376268814 6.198672410839402 14.774684156002156 0 0 -1
255 1 9.045150646549242 5.0392357811123825 12.379198128902603 0 1 0
95 1 7.6881100343437865 7.331987197031818 7.373427676793293 0 0 0
187 1 5.348217553891196 8.653278306555553 9.262753255277547 0 0 0
171 1 6.868255778996107 7.554093067384864 13.727060123922765 0 0 0
159 1 7.823406611526208 5.234876750512334 10.401876913394776 1 0 0
36 1 8.983067673083974 5.609687831834104 7.585677439254972 0 0 0
144 1 5.933306877046722 5.738469566835489 12.747873925696302 0 0 0
108 1 8.538241501978645 7.706967290647121 11.42705286862094 0 1 -1
247 1 6.574641770918183 8.244639489120088 11.398475448077782 0 0 0
70 1 7.894055010262488 8.993424059168738 9.536937327232101 0 -1 0
77 1 8.114932383747282 9.654802210319465 12.901812822112607 0 0 0
25 1 5.801071072838845 9.666950758831968 13.219983152350776 0 -1 -1
154 1 6.520091135255515 6.735962765280255 9.284807038657338 0 0 0
160 1 11.636578930270323 4.803217680794847 10.841002281373202 1 0 0
143 1 14.578306259160598 5.189319209062001 9.28887912112955 0 0 0
83 1 13.672981214006931 8.400363783504492 8.377600513331515 -1 0 0
183 1 11.525797938957993 9.683213420853287 10.243203224837917 0 0 0
120 1 9.767272338609578 7.464746088829041 9.31179890471673 0 0 0
41 1 11.07307225934895 6.068376230364728 13.17460531562876 0 0 -1
18 1 13.115647708266955 4.775866083417835 14.078373512324461 -1 1 -1
174 1 14.143072789360794 5.863023248891074 11.6805279259139 0 1 0
79 1 13.152046766073736 7.025900039974985 9.898704082004297 0 0 0
102 1 11.036671633488025 7.463296125117394 11.54090765585979 0 0 -1
189 1 11.309294308536726 8.711146804914401 8.006593606242133 0 0 0
243 1 13.296634005591761 7.088129497921299 13.819291806210062 -1 0 0
142 1 10.576316419543815 8.605890879763468 14.65272988819985 0 -1 0
129 1 13.515464240062858 9.52389320753465 12.101628143116917 -1 -1 0
31 1 11.900530809219545 6.214636538391242 8.308813717132086 0 0 -1
236 1 -0.17607392593799132 13.411752368916751 9.353198523765187 0 0 0
251 1 3.349201781676445 14.48483677285698 13.74112298276126 0 -1 0
231 1 0.9345980374153413 13.90313557646986 14.484122454193905 0 0 0
82 1 4.51028498493639 12.92949858442127 7.65186284045938 0 -1 0
256 1 2.218482742713863 11.904301114597054 12.596036064436394 1 0 0
178 1 1.1230556358110435 10.989555043458951 9.743473642691885 0 0 0
146 1 4.341019498517278 10.327839768558121 11.525501483531096 0 0 0
202 1 1.6352540419542079 14.570772213407162 12.377899754590599 1 -1 0
14 1 3.3919107184462125 10.1572072485943 14.197031000883944 0 -1 -1
131 1 3.714846622116749 14.759717064642599 9.18741259183998 0 -1 0
72 1 2.6720058545479217 12.918593450280875 10.68989796386933 0 -1 0
19 1 2.0353271892134503 10.929125650834523 7.279806654333435 0 -1 -1
190 1 -0.02773333982668108 12.164882524315592 11.32491512875871 1 0 -1
148 1 3.9233830719862848 10.70265794516096 9.048280635398921 0 0 0
17 1 4.526354315521885 12.301389291816893 13.159628162000374 0 -1 0
224 1 2.113692295904996 13.214916312324325 8.175316162480796 0 0 0
23 1 8.277326469585814 13.018605230063402 14.524947816572963 0 -1 -1
96 1 9.31070438722263 12.041623445434881 12.394741993844397 0 0 -1
44 1 8.038760366484404 13.613298645985054 7.2954872520995355 0 0 -1
228 1 6.717281957323697 10.714633986835368 10.816466582687461 0 0 1
127 1 6.631348994593384 11.38775976475246 8.353082952447966 0 0 0
89 1 6.103342736633731 13.643052078912724 9.0989966928036 0 -1 0
11 1 5.7722798547277945 14.5178621993933 12.88128160132395 0 -1 -1
119 1 5.152544210053067 12.730625569882926 11.000304688236072 0 0 -1
47 1 6.675065713553824 12.052061822619585 13.17496177213563 0 -1 -1
163 1 8.05623926406144 12.455554154465304 9.889038543618629 -1 -1 0
235 1 8.28384951121954 14.067003253825746 11.888903569698307 0 0 0
34 1 9.456783755779256 10.543184266735013 10.62439437551947 -1 0 0
218 1 12.272835499657717 11.592858912142304 11.78645134792909 0 0 0
232 1 10.466405166499687 13.768892446859683 7.699490426510666 0 -1 0
56 1 10.86957699421499 13.959732131254611 12.538913556516198 0 0 -1
30 1 12.581497094379232 10.595513181683533 8.545634453786768 0 -1 -1
66 1 14.675105818311248 10.939789635598515 7.830727495743304 0 -1 -1
53 1 13.91878970412636 11.633384261328764 13.43113019983251 -1 0 -1
158 1 12.897229919822257 13.748901718445474 11.204179939426268 0 0 -1
182 1 12.667702272217129 13.84410488911379 8.703050986326305 0 0 0
16 1 9.761893266263371 11.181560871953316 8.383118478453813 0 -1 -1
33 1 10.659020783662516 12.591370299003003 10.426182153798813 0 0 0
212 1 10.776010071510564 9.789998845493383 12.446225935861813 -1 0 0
65 1 11.644638046377679 11.359307513562618 14.368724133561788 -1 0 -1
92 1 12.361567327092505 14.742196792717193 14.547030494432443 0 0 -1

Velocities

180 -6.393287196971259 1.7049227184280886 3.4250503632045315
88 4.733433823140648 -0.7151265138186089 5.416641262880732
35 9.641840357458927 6.989187855959508 -7.735651726092114
156 -3.6824287018304926 -2.241181182190855 13.029575479214785
249 3.004734025305614 -5.544123216084714 -3.0455604642004466
49 1.5044249560819065 3.0569827792097017 -4.957358663304488
177 -3.152303809049171 3.5477611476447346 -2.3204057474867485
58 -0.4079889322610329 -2.4722625326706735 3.846978583458425
86 1.970994589527753 0.8486144957756131 1.1410694395002983
84 8.658124420859915 -11.05126995570522 -5.860251777725972
4 -4.400135224649353 -2.4953988933768243 0.23553799281234283
1 0.3890352893904907 1.7311737448952138 0.7548192545902547
37 3.3083689724131755 3.0675787253705566 6.7150661852092215
176 4.096333171321266 1.733336692545646 -2.669191131631815
219 -1.393133568609938 -3.4378793180043634 1.9082665916612007
8 1.3677249864349401 -1.3295543796109777 7.51619848642282
161 3.519670007449145 -4.930582233404719 10.481638070791155
164 -0.4966251345471041 -4.999873106759867 -7.3559120764255015
107 1.1731964521902751 -2.258350472178539 -0.21834008378153583
122 5.942518238442317 -9.076462052240617 0.5714380963422604
124 -5.5866242923481995 0.6943321506632895 -2.9692825525522673
74 5.4636779323766405 7.357749005870013 0.3508606879354596
7 0.3508276414219868 0.5252301863326817 -1.957150345964455
213 -0.014032564837348353 -2.83960953347577 2.402924215335924
198 -7.075226974742491 2.3130234712416926 1.3357735166703906
191 3.32808949599533 4.024272906058236 -3.6844441586576306
114 -3.2979806031166863 -8.012805251774804 4.691512089589842
184 9.155314366110487 -0.3392556208747448 -0.8187934450235015
116 -0.06121283508482537 4.582093830519313 0.5704295911829316
2 -1.068517621577318 4.066117407300641 -0.4855025147270879
81 3.9316707772478967 3.464407138628217 0.5942297135080304
85 -0.013404247301884067 -6.611146810112784 9.08406567618718
222 -0.13438074100788366 -10.114234982440463 0.9148425011692793
59 2.2569656595294796 1.8355118682092793 4.541855268488753
27 1.1437488046132396 -2.9985542090091846 5.387445562372432
166 0.3418577182026255 -12.68270640508614 -1.2218071144709632
225 -3.4711439272245523 -2.312282815288287 -3.563196864143134
201 -6.597721377919038 -1.0350661860656385 0.4469239419183977
128 -11.455426708312936 3.0904333790463574 -3.9674816001548696
46 -1.8387653977546679 -4.577611304478356 7.3143079758449385
71 -4.849485878726337 3.3686881897071626 -0.20891190892357786
138 -6.2251681904390725 3.513048050916601 -1.2804094481059685
207 5.9621526967132175 -2.4306358453261647 1.1512557015414846
134 -0.46952113089193376 3.3332918824507853 -0.9298428987829557
94 5.623089775877995 2.6644550945595618 -2.64261705302366
203 -6.068855702642082 1.078481986132842 2.402399127906548
112 -3.2534701257756806 -0.31341829267485405 0.4034910831110215
97 -2.1788661745745044 -0.403645113978778 -4.612199228546244
91 -1.7276623597726246 -6.6022401788569995 0.11090473710738466
244 -4.211115490829213 0.8435355389025666 -2.5069489022984244
169 -2.9259465445631427 -5.002823758432777 -0.6846747852732633
229 -0.20377625205139993 -4.28009173926201 1.5944361430431016
32 2.134151340475338 6.68837211511852 2.0659705729738733
26 -2.497178152485654 -2.0635217410534725 -1.7754151226879304
113 1.8493748088037514 -2.1715448821487153 -5.173200303470192
55 -2.513909336660251 6.1341682831595765 -7.495749996889983
245 2.2083400198563554 -2.9859740614550154 -4.815175757255494
21 -9.139615741288853 3.216018006460875 -0.8693694745255787
121 4.221980568601917 0.8344968383290798 6.011146502066136
87 -5.309684558147635 -1.8768137891295529 -3.6771868844090694
141 7.132189523716926 5.501404708071971 -0.19550595084981143
125 -6.872941493248258 2.4571692639624994 -3.6535799932638287
42 -1.9180081167418224 -3.6008034205926256 1.8048423177335418
105 -4.720793950518667 -8.121991372024375 0.10063551296490349
181 3.3600871496771907 1.3976326451066883 -0.1650739558349971
185 0.14946984871858676 -3.449284279810616 9.230751836017351
76 0.6762431224736973 3.1581218208682285 2.2625939390386947
22 -5.852299016205036 -2.9171836408386427 -4.168517029137221
38 3.007058901019147 -1.3611613747430045 -2.839510156577097
209 5.15103637900891 6.061687478757726 8.693541810084788
195 0.039378796303043306 -2.5646494198968264 3.9160129482610078
239 -1.3100684994377534 -6.226417260978513 5.133443468643599
215 -3.962815132842374 -2.981028713082798 8.054646612228357
230 -5.124518739826767 -0.4378742066646864 -8.84580305758358
10 5.33574242156308 2.1408994554831327 -3.969275351085698
48 7.059455503936159 6.411009330742655 -1.1318014559966152
217 6.94085223546018 2.6630989020508027 -4.910588380443166
150 -4.731515735804914 5.189618937593567 4.103703792918342
188 2.3609382446056064 -3.6119772199576423 4.234668230103491
62 -1.18880237326475 -1.8256994153681718 -0.9052570939013918
51 3.2962108489115205 1.2506220445259075 3.657569741715691
152 5.767984282379124 3.531429743443273 1.43230838808625
237 4.304863397553609 2.0494354636732335 -10.429499096362798
133 2.8572319974738347 -7.869658065719642 3.108567482970297
147 -1.2196574550668942 -1.3936421743096346 0.9973891478538074
179 -1.2696764375050498 0.5451518335216414 -1.6522587747242625
12 1.3798056585088356 0.8849020341094624 2.8976884086212964
246 -0.3463726825629211 1.762957815475067 -3.899156722340051
28 0.8227263999994737 5.252816706607771 3.1122363605854164
50 -6.989068429703574 1.701242244336256 -4.6708938460425315
208 -4.848149104634154 2.030647742078452 5.404289058853717
39 1.8531157247167884 -3.1404369492739432 0.5982848966930203
5 1.6927114149096947 -1.8417199835038922 -2.3972262176018626
68 -6.284378598045783 -1.8797135035682537 -2.9706015175799774
9 4.366037642236888 2.1854938547877705 -8.439524742187142
13 -0.04877026962281942 -5.300982584199597 -1.060535077351236
173 -3.4108770443812197 1.4849013094575023 0.837201668729099
29 0.8555398317942386 -3.4416930652294324 -7.116317649234627
165 3.7159254540329063 5.844728795619263 -5.989537404164365
52 5.607218830359845 -3.081786973472367 -3.009056511113535
167 -0.2580865406290036 -9.100760287983467 0.8504220319934519
210 6.594265364910761 -8.566402763334661 -3.1206527714323675
126 -3.0231459675126335 1.758327915111748 -7.442562882672607
233 -3.452768779313184 -0.5327523392857323 -6.549565394700758
220 -6.97506057674737 2.0494977523082722 2.0379993663159253
24 7.812207408772583 -8.949205651467105 -6.862750675549278
75 -4.035395429139529 -2.1553550410260613 3.5080163051081783
223 -5.272239565819111 4.297168256454671 2.3371747236245635
106 2.044195794181962 3.293813292369288 1.825740282775967
69 2.213763175607882 6.2728325467261365 2.7182126736393646
73 -2.8648305805370704 -3.8154227058150383 -3.2862718126320463
252 -6.578782386416864 -2.727573604887028 2.016661886967934
227 -0.8190655470944008 4.119396159574608 -4.9366561487451
20 5.325849965135577 5.337990625532829 6.422475576229195
193 6.554232769403619 -4.345408294310087 4.653884935281819
221 -0.20697446360375163 0.6738717341375215 -0.20544408016070795
175 2.79387250944049 2.855170372125158 -9.000597138248226
115 -8.468496641924967 4.056929786193005 2.8758061251635385
64 -0.15439888314788297 -1.689610241575419 -3.714288876427358
226 1.9816571141535144 -0.6866330682286725 1.5946860674800707
145 -0.9739223872372887 -2.5704310370642673 -1.9863575531141844
57 4.186046322573515 5.693383326845646 -4.783065144731904
192 -4.780348004239932 4.526790721131769 -6.181019890744689
45 -3.2099177601005464 5.480117687000075 7.695156785750062
6 6.474787078672978 2.7466918833184795 8.109999152764733
61 -0.605816263977456 4.116668709464843 2.0893414374890287
206 7.418673396315353 -8.020471397825267 0.2205128199934667
214 -0.27570770938089656 -7.867875223576574 3.427623852691172
151 -3.620519798678004 -3.5452317497606676 4.444233354967685
117 -1.4672328435698094 -1.1663958212676384 -2.189306117518573
155 -1.7101413763924225 -3.118549417592569 1.3920805696182836
254 1.3831085784058479 4.239216125150061 5.117409876696147
139 -0.01662422120947872 -3.1182076583690668 -4.110998737077421
153 -0.884649010107799 4.611080953042877 0.6587464639936549
98 -3.0243192774356835 4.2855666879208805 -4.220496586543957
104 4.1912251521870365 5.081742120555426 -1.5711592878465626
250 -4.212172475824703 3.7137519096885896 -3.4214828774738715
100 -3.864950728677686 -0.42959164100402475 1.1331070085793353
90 8.70316183600956 0.7381707863212749 2.66973868764887
118 -8.410623213153972 4.330602716810781 0.5849966866208468
149 5.280851543222305 -1.6169889696385904 -3.834532874300469
216 5.157865211073965 7.82299654466992 0.21193220841716234
162 -2.146895026400463 -2.9146886393904476 0.8796771872939239
109 -4.399439798060155 -4.457201336953509 0.02677699292916486
3 -2.4541067723959356 -1.874500630452416 13.558946051856635
194 -0.6750477042540837 2.4947222026366807 6.911427457156873
63 -4.617599846965012 5.997010637896673 -6.33762385744811
197 -6.383702702658843 3.757180539202736 5.305966538273084
80 -4.002924764644683 1.251821437295782 -0.09982937590053047
140 2.2681719514149625 2.5466885875661744 3.2274327858642846
93 3.448983647875445 7.668459598546669 -8.084915795697935
67 6.518641599748184 -0.5994646753348627 -1.3218077068542915
240 -2.9557427153925175 -0.9602146510522259 -1.9531376781732046
135 -1.2131748957972244 -3.9217865268050773 1.7671455915548921
241 6.847603976433672 5.8533894567488565 -5.378456577044914
103 3.4206361992586536 8.973608856299103 -2.01368829103741
170 -3.318839035529338 4.802316793378554 -7.750659970406028
168 -2.0800101249984375 -6.426215151155648 -5.499139414420688
234 -3.0041491561135554 -5.538461965956429 -6.379696950657271
54 -0.6086135059356734 -3.3242756240443048 -3.657653918601288
111 -1.8303537912309582 -1.275386888293045 -3.8283024057970323
204 6.104205821975418 -5.584836253838667 1.9474597655702308
60 4.889617282671718 0.04394574336066928 5.088332579343212
123 -8.774123548548028 -8.25642358567001 -0.49842886566141054
242 2.220395284831621 8.352656917094754 0.8410946409113996
40 -6.732525509846627 1.0850192397695382 0.8643423894817539
137 2.0845348930380885 1.3772454665307325 -1.4193412317959087
132 0.07447782020737095 2.832138400861595 1.957999580775039
200 3.8848436444542833 0.9577935796829201 5.754601715271599
110 -4.350358505259509 1.9676534840074025 7.7055109701823925
15 4.576013140493638 1.5878007861802574 -5.295848038445242
211 -0.47433098681240665 -2.833986302976456 -2.6984379286033677
238 0.8740142073588019 4.368269538355308 -1.834752126807337
43 1.016356357453929 -5.693317975434052 10.252967935454114
78 -2.2575088489159536 -0.30000976468896184 8.155021383039852
186 7.980951911777362 -1.0859915889002378 8.233399524582698
248 6.792533806264761 -3.57366472237546 -4.504859197092276
199 -7.274623236549216 4.023019098953097 3.52432229951538
99 5.65620911317976 -2.5518958275302577 -1.750069746370854
136 -0.29655106490164507 -1.4791058473959853 -5.898142207916467
205 1.8295011913197254 -2.8306487105729885 7.4507749815109
172 9.88102815814228 -4.7196693980920825 2.108160171165683
253 -5.283317021298195 8.892633126565212 -1.5288413083035515
130 4.3363474822127355 -5.211295309554186 -0.46758286737233595
157 2.05938371960955 1.7238404303562196 -2.0710782846193907
196 1.961567978825481 -4.304989758644211 2.514769426490364
101 -4.066794731081063 7.395929338012768 -6.337229649729687
255 -0.806219964316812 -2.5081287227251816 -4.696949583165357
95 -2.8704929592737347 -4.324263670796149 -1.5068797209987594
187 3.524229646745649 -8.860183836813455 -1.67377694723223
171 1.6925181986780722 1.1532372638874813 3.338349230981744
159 2.6106374988159984 0.47198240034497435 -0.9232527502897273
36 8.444263956016817 1.0332415515008575 -3.6713099828133093
144 -7.572568910847224 9.530220278843524 -15.832538469078276
108 7.919021725374973 -0.7967609064171537 -5.8057672930211845
247 -1.8203774281986518 -1.6809609113212438 -4.352980668803278
70 -3.202570201667512 -1.3288330791603225 -0.031460827668276646
77 -3.288118174369439 -1.5392794179429368 -7.6212652514279675
25 -1.1635019505565523 -4.995407265902875 0.6614041700115171
154 -2.2992578797625973 0.24468479039261026 -0.6059227068614833
160 4.564541804511817 4.81705565432364 3.198970390553509
143 2.710198860241642 0.35292663418264103 0.705213060242646
83 -6.2631833690001 -3.1022348866469964 2.760893757479875
183 0.9695013867317379 2.765591395759902 -0.2512579852298426