LAMMPS data file via write_data, version 2 Aug 2023, timestep = 30000, units = metal

256 atoms
1 atom types

-0.0801677704362298 14.160167770436235 xlo xhi
-0.0801677704362298 14.160167770436235 ylo yhi
-0.0801677704362298 14.160167770436235 zlo zhi

Masses

1 58.6934

Atoms # atomic

7 1 3.4833258402481855 1.5930953205505693 1.994336277443976 0 0 0
18 1 1.9957940500934812 3.3710226356328965 1.7037490141439384 0 0 0
68 1 1.8004578043790116 1.4927461864317748 3.6453539226616303 0 0 0
71 1 3.4892389309268514 1.5307172087227618 5.198109538999867 0 0 0
82 1 1.8366717424973564 3.4623120590741427 5.296832861534198 0 0 0
85 1 3.4150178761173065 3.545425991521241 3.533492792714476 0 0 0
67 1 0.2445980492847113 1.8571832539211721 5.46574961359872 0 0 0
3 1 0.11824086035711964 1.8066120913567367 1.6669084364151352 0 0 0
81 1 0.4431137174909061 3.386007109536961 3.314805525035364 0 0 0
65 1 0.10999316781181356 -0.07880397844794589 3.6906330322309855 0 0 0
5 1 3.5563099445545863 0.24085718647635856 0.12917204616192882 0 0 0
4 1 1.4286718162917726 1.5312610259250412 -0.0689129309945226 0 0 0
132 1 2.009298393326089 1.484282146356444 7.01522412532953 0 0 0
11 1 7.115625804066214 2.0029445211425454 1.8027225524077453 0 0 0
22 1 4.988613208490453 3.4949265155620104 1.8708196899887188 0 0 0
26 1 8.960495086531605 3.3850361829502007 1.9169935171615269 0 0 0
72 1 5.200669346492662 1.8161676408813343 3.492788638631392 0 0 0
75 1 7.003669485012272 1.829206334617019 5.190164084281781 0 0 0
76 1 8.645131241003796 1.7010280346755524 3.6512950127726915 0 0 0
86 1 5.0621536697014085 3.1202176791259437 5.390289095412461 0 0 0
89 1 6.803141936752241 3.5744284533330535 3.4275461409516264 0 0 0
90 1 8.821382016804964 3.403123554265314 5.274104778792468 0 0 0
74 1 8.905308924593374 -0.04754876528190789 5.215029354166794 0 0 0
25 1 7.034287864970121 3.474733498198312 -0.04044483401739293 0 0 0
73 1 6.990674395717214 -0.017109024951198037 3.424437827536284 0 0 0
8 1 5.1984111734594975 1.7735466320248958 0.04647618297295364 0 0 0
153 1 7.1289028584946 3.4634707738508155 6.810238085451239 0 0 0
137 1 6.784493802929126 -0.01683337762372794 6.916296700173192 0 0 0
16 1 12.302443153558825 1.4724555582684584 0.040443524820648696 0 0 0
13 1 10.668499061771447 0.041836975079514005 0.4060260161610021 0 0 0
15 1 10.714805300087525 1.753881793380513 2.0570493005485075 0 0 0
30 1 12.550271209284555 3.2219291865795925 1.6847603794231178 0 0 0
79 1 10.737567289323575 1.2430084606683043 5.454029543718187 0 0 0
80 1 12.666023699643784 1.711236932289383 3.602289512254761 0 0 0
93 1 10.640753794878199 3.4532033745430626 3.7756907551750216 0 0 0
94 1 12.626085403321113 3.3934517036714213 5.141285446862611 0 0 0
14 1 12.588425413923217 0.03180937834964389 1.7413648828626895 0 0 0
157 1 10.820611935441944 3.384112022918736 6.777405666047244 0 0 0
148 1 1.6080663060721831 5.630034057298956 6.827385193341292 0 0 0
165 1 3.4472656039492935 7.171068591873575 6.834649094186865 0 0 0
23 1 3.4528957194041663 5.469623534272504 1.6563213852050234 0 0 0
34 1 1.7367958449848628 7.112207379646026 1.8933240234005642 0 0 0
39 1 3.633793158612679 8.584246593219993 1.8025152085505083 0 0 0
84 1 1.711050989366102 5.365089168621594 3.493253690273151 0 0 0
87 1 3.5163416479952767 5.082742463745205 5.256604735069197 0 0 0
98 1 1.8468318481551902 7.146105817914628 5.02501642070318 0 0 0
100 1 1.4460813647635913 8.827934017734085 3.43889751494141 0 0 0
101 1 3.6475257802562835 7.081252525021369 3.553718274602856 0 0 0
103 1 3.34282184202164 8.929098784558631 5.329984859530143 0 0 0
83 1 0.06130299577298215 5.109572729183173 5.151534445128368 0 0 0
35 1 0.03774397801848696 8.867196013690306 1.4917900360262892 0 0 0
19 1 0.06604282869087383 5.130405202313746 1.6431667250188695 0 0 0
37 1 3.415642254581018 6.705583145380025 -0.064549480288699 0 0 0
168 1 5.10576915188667 8.963107278954707 6.973076714843423 0 0 0
156 1 8.711417027567768 5.13840111337403 6.983520368273311 0 0 0
27 1 7.150262618955868 5.19478102811335 1.7432312316451728 0 0 0
38 1 5.674141306859279 7.0234865779359925 1.69652446747287 0 0 0
42 1 8.767301419687021 7.009477373300192 1.6951168649953807 0 0 0
43 1 7.410665643037836 8.963593548402686 1.9141811055301985 0 0 0
88 1 5.263212594086023 5.358894719071381 3.5166377825462924 0 0 0
91 1 6.972900017574468 5.3493060472714316 5.121479601602044 0 0 0
92 1 8.748938528835925 5.335377115465757 3.503287204625907 0 0 0
102 1 5.197125888267565 7.133037585646012 5.3890128503402615 0 0 0
104 1 5.314340528545884 8.755402369995387 3.38741932456244 0 0 0
105 1 7.170360434006977 6.899209748706103 3.428865138069006 0 0 0
106 1 8.762984274245845 7.01631884112372 5.246921553384026 0 0 0
107 1 7.034271528333581 8.78313745083847 5.171408305232398 0 0 0
108 1 8.97596516194622 8.494242877835756 3.4700844690651484 0 0 0
28 1 8.738381186217174 5.114156928962973 -0.026265247986794193 0 0 0
152 1 5.269706158546741 5.180459554559526 6.8466723955855 0 0 0
169 1 6.978787491640526 6.8632374645633005 7.024039612146525 0 0 0
41 1 7.446346146660055 7.310746310091768 -0.07308168786071967 0 0 0
24 1 5.289537534431321 5.060656870694359 0.12121867901833383 0 0 0
44 1 8.960421470381851 8.957510627696516 -0.06245253198727774 0 0 0
97 1 14.131906243645316 6.9715194211225935 3.2690160379642905 -1 0 0
99 1 14.156739432488283 9.007975729787125 5.067889193317763 -1 0 0
161 1 14.05043346704627 7.32000647774373 7.035945499729588 -1 0 0
31 1 10.420089402882967 5.174778351953074 1.6877367283986664 0 0 0
46 1 12.343789640496063 7.079821529802031 1.5179312823924762 0 0 0
47 1 10.676414354501448 8.671207096868311 1.5461344997072877 0 0 0
95 1 10.603250276632432 5.192099211715198 5.122411701099199 0 0 0
96 1 12.500020384146902 5.279800568030366 3.303639703775705 0 0 0
109 1 10.67963083567317 6.917012259772055 3.3245370236513114 0 0 0
110 1 12.559906924352692 6.957856075898236 5.276025139510801 0 0 0
111 1 10.631055509443957 8.566927893528277 5.09641611554412 0 0 0
112 1 12.315836529515693 8.687475171725248 3.415103684276778 0 0 0
32 1 12.303866673468029 5.252163029010038 0.2138847051239252 0 0 0
160 1 12.26681800362646 5.394807542736396 6.928066866878194 0 0 0
173 1 10.624944561750096 6.986335145966475 7.0344810983049255 0 0 0
45 1 10.353041986014196 6.900382666275765 -0.014921111796539321 0 0 0
51 1 -0.014413379988266655 12.40902201098942 1.5796822639044796 0 0 0
69 1 3.4233684357424554 13.79663943608542 3.6159038744740526 0 -1 0
66 1 1.7709557577356871 13.93181722150382 5.432717309417885 0 -1 0
115 1 -0.00047529754933158756 11.997099193321363 5.226962950098425 0 0 0
2 1 1.8677612042279663 14.06300502862072 1.920617192572787 0 -1 0
50 1 1.7487968521861008 10.257605675352863 1.8201836545614765 0 0 0
55 1 3.162622331629669 12.217563789438792 1.6139651659894443 0 0 0
114 1 1.8904350852580831 10.68696255844673 5.300363171978827 0 0 0
116 1 1.6483276988304965 12.254725246823714 3.3815744154361016 0 0 0
117 1 3.592046200565895 10.481231378818789 3.4090790133475837 0 0 0
119 1 3.671453831168385 12.231223872035763 5.475283735686003 0 0 0
53 1 3.2535873389025105 10.504281955943954 -0.02305992550845737 0 0 0
6 1 5.371916422990736 14.116888775621723 1.749788351932743 0 -1 0
10 1 8.521181514145328 14.007353330025747 1.713904217004038 0 -1 0
70 1 5.17093323701259 14.148783646461746 5.326781868393906 0 -1 0
122 1 9.015803996908588 10.397453877621237 5.073264095848466 0 0 0
124 1 8.78599063242862 12.461403341004964 3.5683888666463326 0 0 0
58 1 8.93323588308008 10.50165632574236 1.9286233135506896 0 0 0
59 1 6.7731964320167135 12.315431784623497 1.3388299134477537 0 0 0
54 1 5.160500801462431 10.52384180367899 1.4308251450960248 0 0 0
118 1 5.192984139493813 10.589768584743888 5.290952892913408 0 0 0
120 1 5.147220144326256 12.30173180276584 3.277823564297694 0 0 0
121 1 7.163169298132488 10.660759767238169 3.599981498372599 0 0 0
123 1 6.963998344290693 12.33996948066665 5.110025737549802 0 0 0
185 1 7.1925117005834425 10.510303062203185 6.571933903677815 0 0 0
57 1 7.159710892323948 10.388814487439813 0.01907765564787489 0 0 0
113 1 13.98331143382426 10.761921120226944 3.2363323153084913 -1 0 0
78 1 12.658144943264142 14.132506779128091 5.453349990034925 0 -1 0
127 1 10.544243608170516 12.52616040558765 5.386298567973144 0 0 0
128 1 12.52000113849796 12.383029325838388 3.4311134919700663 0 0 0
125 1 10.6573816426377 10.729780346026851 3.369596596584739 0 0 0
62 1 12.566119452829867 10.684846023594478 1.5348526925961103 0 0 0
77 1 10.633064223838398 14.051473766238901 3.3853012149675905 0 -1 0
63 1 11.171270973232463 12.455387254162703 1.6586663295010269 0 0 0
126 1 12.380352953744826 10.291318105159005 5.343614454547776 0 0 0
64 1 12.49024368377007 12.664779379843779 -0.06970221014404417 0 0 0
192 1 12.680765636799848 12.37085277748102 6.884460547459612 0 0 0
189 1 10.512402798389632 10.552972902898924 7.001788764845887 0 0 0
1 1 14.123091391178576 14.145002616598035 -0.060259997604218185 -1 -1 0
135 1 3.5148165531633473 1.551851807031605 9.090148060567603 0 0 0
146 1 1.6226036348002923 3.4055953180715632 8.880507059689894 0 0 0
196 1 1.6586953137575433 1.7233734344288503 10.8014809822674 0 0 0
199 1 3.298722008656989 1.778640481390316 12.350176379648573 0 0 0
210 1 1.6617219269119197 3.554396169622093 12.208122927441048 0 0 0
213 1 3.189550315661694 3.6129683957874614 10.776497232730787 0 0 0
194 1 1.4480627687065661 0.1250243350817652 12.321651748577093 0 0 0
129 1 0.09061655464695306 -0.023170187924395104 7.36216680994625 0 0 0
17 1 0.05647991372353727 3.6136949992787173 13.993110462975514 0 0 -1
145 1 0.01385596098333888 3.3148127829520373 7.308083419178223 0 0 0
149 1 3.3237318258406128 3.407871854693727 7.204546074838313 0 0 0
21 1 3.4593267770333282 3.3449294157756384 14.153877444214766 0 0 -1
139 1 6.9231502429612775 1.6479456582866676 8.771733684195668 0 0 0
150 1 5.162641110652199 3.4775524126904878 9.033257789411703 0 0 0
154 1 8.636079370973295 3.454578309055528 8.643988261458635 0 0 0
200 1 5.3917133117381795 1.6829953115058232 10.563484795119006 0 0 0
203 1 7.029621846464457 1.8400539929957953 12.379875430702336 0 0 0
204 1 8.681280333942736 1.8510297005522005 10.524756560206756 0 0 0
214 1 5.231486415020216 3.683533912265443 12.485274985580725 0 0 0
217 1 6.969707585380561 3.414119754943532 10.713043964197372 0 0 0
218 1 8.841145709650075 3.4570963956639376 12.291308052245608 0 0 0
201 1 7.10596506639657 0.20904805640604204 10.755635520739343 0 0 0
202 1 8.650597182194739 -0.028375588414652597 12.661388870842252 0 0 0
140 1 8.814686701792247 1.6332298365402522 7.057548648962247 0 0 0
12 1 8.923635989396637 1.6861733968859738 14.116590072082133 0 0 -1
136 1 5.147603838235757 1.473830763390823 7.155538176149488 0 0 0
138 1 8.710320659910861 -0.08006119487239971 8.925945661305875 0 0 0
9 1 6.840927551725059 0.08127634959593166 14.065625743719336 0 0 -1
195 1 14.09505513453707 1.7383196491561297 12.45914276698924 -1 0 0
209 1 13.910686421000412 3.890757593462572 10.568996355525755 -1 0 0
131 1 14.152011715162255 1.8837344484560106 9.182919654331004 -1 0 0
143 1 10.376864054312383 1.6537602908313491 8.855695393605195 0 0 0
158 1 12.559957500825329 3.4794372553841195 8.72450664761001 0 0 0
207 1 10.44865047489491 1.7806342302901683 12.260678615805189 0 0 0
208 1 12.379406984138297 1.6459423003789488 10.603555118187742 0 0 0
221 1 10.685308262256145 3.370264685625431 10.71402012263473 0 0 0
222 1 12.395926343118244 3.5867828963974953 12.481665404094217 0 0 0
206 1 12.328492973876996 0.09342254699866182 12.361257637873013 0 0 0
205 1 10.458230740722733 0.11085326226271144 10.59893132824714 0 0 0
144 1 12.20411853467197 1.6336559319979316 7.447268967875757 0 0 0
141 1 10.655447385474146 0.03671238512795938 7.117486432393745 0 0 0
29 1 10.79098057497227 3.4742726935314683 14.14142778341355 0 0 -1
151 1 3.345373360097774 5.230360017799963 8.791949025912288 0 0 0
162 1 1.6424673545639006 7.045026024821192 8.939967298763989 0 0 0
167 1 3.6180686902985952 8.723387570622558 8.82914519627464 0 0 0
212 1 1.4690758364752352 5.315580361267077 10.795504379724978 0 0 0
215 1 3.491739547884689 5.452679549164117 12.22097444067626 0 0 0
226 1 1.6519673990427273 7.029046317747578 12.145037268564627 0 0 0
228 1 1.4965189389017695 8.793666040820147 10.507786300526902 0 0 0
229 1 3.602998069021175 6.923064244527055 10.442499606615328 0 0 0
231 1 3.339364824716604 8.575881601054743 12.277671799300267 0 0 0
163 1 0.005265538908730605 8.963132940963416 8.771233336417074 0 0 0
164 1 1.6042664977724235 9.019264702424495 7.25212041717525 0 0 0
225 1 -0.03500446908689803 7.050381395503491 10.716418970868217 0 0 0
20 1 1.7110817368382196 4.9701806676867655 14.117668967684429 0 0 -1
36 1 1.9188240355275004 8.582685691465011 13.99003710193761 0 0 -1
155 1 6.763343458306293 5.070453804738462 8.901170616173097 0 0 0
166 1 5.228812801154688 6.840524793542637 8.626055370322737 0 0 0
170 1 8.590864979508098 6.913204000751687 8.79681650654444 0 0 0
171 1 6.960208733366539 9.193444473251486 8.497023902754995 0 0 0
216 1 5.228599738445036 5.08689972771651 10.57959791571505 0 0 0
219 1 7.3804626589711395 5.262466594409276 12.411657474917835 0 0 0
220 1 8.891232824827206 5.273078932927077 10.535790787952157 0 0 0
230 1 5.280844850994059 6.911878446780529 12.228178490266783 0 0 0
232 1 5.349529120252761 8.724865075943393 10.38799993084523 0 0 0
233 1 7.022661548590681 6.8110367976798445 10.676666683902884 0 0 0
234 1 8.816253363943602 7.204560143420879 12.304432695084195 0 0 0
235 1 6.717016803637224 8.991356836003968 12.348305997548021 0 0 0
236 1 8.683333322711505 9.026482031271469 10.49040440886738 0 0 0
40 1 4.912970225841597 8.636877436405237 14.091910342589623 0 0 -1
172 1 8.831019419284837 8.803344427899411 7.121058245468975 0 0 0
211 1 14.1345569289719 5.427359538467903 12.476910230567057 -1 0 0
147 1 14.059247934726574 5.441508374531651 8.750457391288577 -1 0 0
227 1 13.828078706558504 8.7373198219423 12.131121340031076 -1 0 0
159 1 10.365081924880752 5.290621549863795 8.638440739525556 0 0 0
174 1 12.357242921945396 7.317225948721083 8.821849291617987 0 0 0
175 1 10.285961965623445 8.912746706620382 8.875214806864156 0 0 0
223 1 10.628597036074742 5.090791039581729 12.450386961448588 0 0 0
224 1 12.062520321268915 5.52673608837025 10.379067702916643 0 0 0
237 1 10.523922436288014 7.26710906569654 10.583907694527465 0 0 0
238 1 12.23411089403454 6.715230772398478 12.594962087188033 0 0 0
239 1 10.722460312370595 8.998771010608001 12.57932545089506 0 0 0
240 1 12.235448452724468 8.799004539015577 10.62468656852972 0 0 0
48 1 12.616182380241842 8.912410593349682 14.145739920508436 0 0 -1
33 1 14.104524847050854 6.9143039654746765 13.922196504924058 -1 0 -1
176 1 12.1456770068642 8.817220869361316 7.167933479807617 0 0 0
197 1 3.881196963233731 14.057363165801364 10.661740883665786 0 -1 0
130 1 1.6875128950910612 14.103085959828407 8.865397232929665 0 -1 0
193 1 0.05692142426426379 14.126402688030046 10.522562771899889 0 -1 0
247 1 3.5441030488884033 12.478880305028797 12.184293223821202 0 0 0
245 1 3.5007954994977397 10.53499487960349 10.431400012754155 0 0 0
178 1 1.5822913388418254 10.842351404998455 8.865925141894465 0 0 0
183 1 3.7268740960624207 12.31000975867615 8.86280019064586 0 0 0
242 1 1.67563648128877 10.522340463903273 12.144791572488053 0 0 0
244 1 1.6927129138973476 12.023767273452943 10.688683453802822 0 0 0
133 1 3.475166302452522 13.960831060036387 7.190997103524211 0 -1 0
180 1 1.8054779213635703 12.36482554514968 7.129141404621208 0 0 0
181 1 3.382451235630769 10.531830340240806 7.197682031443232 0 0 0
49 1 0.15374307139490648 10.724268101715857 13.932967322518238 0 0 -1
52 1 1.5671317821436301 12.527075291240696 13.987391307999818 0 0 -1
198 1 5.366788813267157 14.062867517030238 12.291082722775881 0 -1 0
134 1 5.380869803166052 14.12288049835089 8.788247688252328 0 -1 0
184 1 5.348449689700964 12.38971215248858 7.085474597534545 0 0 0
248 1 5.553017756337522 12.460941306224356 10.494794171997935 0 0 0
187 1 7.156064435122737 12.379089769300515 8.576353877844763 0 0 0
252 1 8.662818757623958 12.480814523619353 10.73517578147309 0 0 0
251 1 6.949974156315822 12.246250334625934 12.431481835882858 0 0 0
250 1 8.87191337894497 10.90810316971944 12.624415974056133 0 0 0
246 1 5.290545434307151 10.607122393838813 12.182461636953402 0 0 0
182 1 5.434565896253494 10.74545689452784 8.506000855851646 0 0 0
249 1 7.143055227316366 10.787687572094764 10.481455226427723 0 0 0
186 1 8.921965137020036 10.877295175339068 8.777669492102092 0 0 0
60 1 8.69859631079622 12.660748011323047 14.15815307213505 0 0 -1
188 1 8.977334687084399 12.721575197059016 7.07632948978697 0 0 0
56 1 4.867590268831322 12.558553798886432 14.123168943688933 0 0 -1
179 1 13.959060504162187 12.583030577871797 8.921864016165793 -1 0 0
241 1 13.867667700381997 10.67844208454564 10.624738525802709 -1 0 0
190 1 12.10600320933049 10.666867985175793 8.884458539358219 0 0 0
191 1 10.575889238418258 12.52437680116529 9.038746220679467 0 0 0
253 1 10.386318983686184 10.664420577549198 10.605743845987751 0 0 0
254 1 12.312964532878059 10.735457941271402 12.538794994569255 0 0 0
142 1 12.26745910167663 14.061663400623543 8.852361530736518 0 -1 0
255 1 10.585783227554213 12.560162590036056 12.319724803334912 0 0 0
256 1 12.259069515345766 12.547765160775777 10.616206728601126 0 0 0
243 1 14.140126065115352 12.452606288500988 12.133883273287227 -1 0 0
177 1 14.10320266779841 10.601651461202174 7.13817092156919 -1 0 0
61 1 10.751056529059696 10.97147385835152 14.084480131760381 0 0 -1

Velocities

7 -4.817235470496028 -5.4316772617268185 -5.212640582369366
18 2.0090203506161206 9.820509021366568 5.3341360429282485
68 -6.969734143536114 -0.7209032896644891 -1.133400233618198
71 -10.959780796739352 -6.213094292173361 -1.4312505138713933
82 10.314697377315401 0.3950345772544948 2.4136317475109275
85 6.66421082122839 -0.5249606259370616 0.6369270316324455
67 -0.6051308606507723 -0.6715860640156658 -4.048992394104198
3 3.7699542668489374 4.161403662256344 0.4452488250762356
81 -3.1894928255755066 3.8894484258275805 1.038492046625754
65 -4.630889269544594 6.254809652499674 -5.500378069675812
5 -4.186019674546032 3.53572965490674 -4.341356240238714
4 3.074502957163819 7.929390460519995 -6.773566121233575
132 1.6382405220151952 -3.44317727152562 3.0007814412593485
11 -2.080655153595209 1.8681775033033916 2.0315286573091345
22 3.611359787096349 -4.437121944611381 4.44416173004647
26 -3.51168021208455 -3.4864716603575965 -1.5516605537984045
72 -1.615306796524319 1.9947567041223198 -0.3303808895022233
75 2.569611623470754 -7.030411376747758 -4.5318668762664105
76 3.826935250381147 0.20720890944389952 4.53361886593033
86 3.6634341911610644 3.010045491810437 1.3313640769820174
89 7.660848451615609 -1.851314084135257 5.536302317899275
90 4.638554346465662 -0.4275181650999008 1.8297605517955065
74 4.505594472743141 2.9914854304178564 2.5269043122205015
25 1.8280666181870757 6.3039546290459825 2.277310681774478
73 4.922762185022048 -6.17962599838982 1.6329286624769639
8 -0.6051332103769639 -3.040484611074425 5.066891507042613
153 0.06309840974851899 -3.0108043664364113 -4.4311105355320395
137 -2.2721527810964446 4.872413989094246 -5.718717371792171
16 -3.1430434017931406 1.379180461448692 1.735856853058489
13 4.5528517738301275 -0.40626457977198077 -1.4138600640890928
15 -5.929554288809679 0.1269357122503979 -2.3845023806964085
30 2.335983194165759 4.319194359946035 5.266823985998702
79 3.301763889725072 -2.046757974922034 -6.214317554660489
80 4.834989754048085 -2.672879762343425 4.080786325041853
93 9.684569556668652 -2.133965124034147 -0.8762239164695925
94 2.3126846346269185 2.580170769588614 7.133405509701527
14 1.1112915236033203 5.42403436582722 0.3462878030727072
157 -3.3827883095657367 -3.4115474872627733 -4.523326725520904
148 -3.885668170987531 0.6537576477944708 -2.8453264923166275
165 -1.8846076231120616 -2.1308896825608374 -10.068516692751578
23 -2.3822261908920663 1.3040490321017368 5.566305243182527
34 2.3398894447535357 -5.768484179680505 2.9646919596457346
39 10.522853371136172 0.4379362069762789 -0.9439951071206303
84 -4.103854527846084 -8.820196962505447 -8.447680961014585
87 -1.5034823558761363 -1.3955898140238467 -2.3381911444345955
98 -0.8404502158846604 4.9376491352330945 -1.969400014552858
100 9.656452532045297 -1.0895568542661664 -10.902913039791702
101 8.341765508764848 2.4543324946562786 -1.5245901247377829
103 2.607382857585564 -7.231602745967432 2.8738453572736864
83 0.3148253421853936 -12.563895410921086 -4.250617422696327
35 7.345720667269832 8.455621147654137 -7.467732973443822
19 0.5392141921140432 -7.325537694195039 -3.117870639615812
37 -7.265553536634903 -4.148845857033643 -3.0332386406403797
168 7.301495732979123 7.578346426289512 0.9701332706589247
156 0.1217278784649623 -2.894486838685993 0.36128573000676484
27 -0.6973988434576431 3.4844734414860064 -0.7773416336282631
38 -6.471976932529151 0.883201260911962 5.821155607963205
42 -1.2719590712373352 3.134695655793416 3.545091679988959
43 -5.726056494221185 -3.7964915691721166 5.774250204750399
88 -1.4173790694264614 1.3632262975114908 -1.8333734088270097
91 -0.6256433736968503 -2.0906168046074782 7.2900769917466475
92 -0.8014925703619096 5.086452220711372 1.6970146776513544
102 11.752355598347588 7.114758660160434 0.0006081159557409002
104 -6.092466571450628 4.652037619347671 -4.365166099660795
105 -4.675169072219912 3.4859144244752684 1.0984710657340224
106 6.0583523099078525 1.6330968184048194 -3.9712685514291546
107 1.311239474493667 -0.2860529033701102 -1.270754121725287
108 -1.7630265847741058 -2.5270992089621007 -0.5845016752968265
28 -3.7092035313888827 -2.598344848253192 1.7920138395775091
152 3.1187322624030114 3.8727090874361503 -4.451335966550206
169 -2.688412135481731 -3.016186301176648 -5.713265522529732
41 0.9467622813073103 3.0195050606100358 2.856900184674892
24 2.563547224676578 -4.528541882214128 -0.4516826253477431
44 0.5144452010826048 -4.500653538348687 -0.679353809164385
97 -4.833683920525094 6.051644584070754 8.805874006451589
99 4.0013137563301155 -4.895439407023847 4.554512486283417
161 -1.4732048438984786 -0.9502352680434858 -0.6638159014227178
31 -0.1140702539566289 -2.820128142950072 -0.011446440958945618
46 4.250154103191904 2.860815856172465 -1.323990160524567
47 6.4044691960290345 -2.930124597770794 6.51013039463462
95 -5.049825234370844 4.856290301933708 4.875490613884545
96 6.629906146018394 -1.3099142047300012 3.4152064115705336
109 5.669497591171575 6.105544428343604 6.711142935648942
110 -1.9145534640976634 4.819659724760561 1.5794858629226824
111 -4.800382481445159 -3.4867149919338374 -1.7309294897933192
112 3.4029912965428095 4.664913507115706 0.0006457275671443181
32 0.46128570936096686 -0.10744831008587193 -2.824039385102209
160 -2.6264920057175796 0.8063004920806746 5.39290187675477
173 -4.115598092314763 1.572461321608407 -4.952394801238705
45 0.6808317720453435 -8.369996185829146 0.9569813165510053
51 -7.844914821936713 2.872423082540968 1.4373237459405683
69 -6.011064611311709 5.655095098475899 4.687121733973837
66 1.9195534671692371 -6.548332011577211 4.596362383637712
115 5.729412502288473 -2.7796116845332604 -6.538903995759531
2 -4.517448346035783 -2.7676056494230954 -3.4071755411061737
50 3.067864314164682 3.785074284667974 -5.037254284096964
55 5.639277029592265 4.014065232516227 -0.41442645372170206
114 1.4791263583965657 -1.1799541249296377 2.72688116830684
116 -0.6696597097848518 -1.353713240338397 -3.610717375101163
117 7.517279789605203 -1.4858977018077248 5.571082564136415
119 -2.2531283171015426 1.364819375793166 -4.727301729420901
53 -1.2164987165221406 -1.308756812912542 9.07965677141374
6 6.668740521368789 0.8586222651268887 3.706425907706223
10 -1.2490933232527675 8.895320171555896 -0.49608643899737453
70 5.196757956060303 2.1854842259556353 1.874269644743427
122 0.17815723585483415 2.8418858428472418 -4.8350418849485886
124 1.4878626000692308 -7.191598261244977 0.19410738101399155
58 1.9582270439951617 0.5391714089652518 1.8535282536028397
59 -8.757166353430426 4.28476708795062 5.959315302055497
54 -8.52844201097653 -4.063651103079041 -7.653286051351914
118 -7.003901559969172 6.8733033792326665 6.652875470951177
120 -2.742030343661111 -1.4721915476300704 5.068609089968721
121 -5.82009419301954 -13.6530600490751 -8.493569294705123
123 5.253502506626905 -3.9772120583646045 -1.8860536786699964
185 6.766822959338485 -8.92823586584785 4.864951134832547
57 -1.5733550780368704 -0.6843039126713297 -0.07528558441563711
113 -5.001745393777782 2.8757707563164185 2.9403267488910276
78 1.340183717989551 -2.4536088205848663 -10.812636917115999
127 -5.47831756789229 -0.724900622595246 -2.312308341041039
128 5.921571037839869 -5.42138503395699 7.053919802700898
125 2.475105155656451 4.9242045824539735 3.717330796260272
62 -2.28802570376279 3.8546057159292224 0.8242430116615458
77 1.4243653708560766 2.8239516811779937 6.3850154016939005
63 -8.783596553038485 5.979892515453329 1.7469874838280486
126 -3.502747239150349 0.4753428144341403 4.731529552300822
64 -3.3725436062176914 -2.6553565747975205 -1.1934513300335057
192 4.833793390268652 0.7290429073251327 -3.3477524776447645
189 3.519590115325719 -1.9269104064746256 4.539395139672354
1 -3.9060997797838164 -2.895666609607715 11.066699297095834
135 -1.7055335286588058 7.145658036411425 0.2549095635042376
146 2.309598695878828 10.049300051537458 -6.366729020189858
196 -1.9776735733887094 13.349935724433523 -4.88267954036052
199 1.878693796043671 4.931553627206038 -0.8408598019319016
210 3.0136337033071325 -2.423048331555331 -3.917357151542276
213 -0.9480347076815516 -3.8359114973771473 -4.675484158667295
194 5.7352489324212 -0.717607323778003 -0.8086359855828215
129 -2.797423256890762 -6.08469113981602 4.917777872392451
17 -0.695147136265461 7.431923971907734 -7.44244591184036
145 0.2682348100793783 -2.4752053610852935 -1.5441036419049519
149 -0.32342614490347377 -0.5430260067720072 4.970837285188558
21 -3.8850682530689866 11.845909755637583 1.460689808060088
139 -2.0287246090122033 11.464397196101796 -2.222794591958798
150 0.8728323790521307 -2.4539787863969234 0.5787988874937336
154 -6.045576871136875 -1.7728551357481017 1.6031479358753458
200 2.3892304473881767 1.2149898584073873 -0.8666363296190858
203 -6.335086698081738 -9.287613881009808 0.4009706286699433
204 1.1551749291010858 -4.037602271434297 -1.7897383412131727
214 -2.5435543626985972 -0.6418936527595792 0.14468010048279484
217 7.723216179554901 5.856250794138034 -2.6273861654223873
218 5.792586811715116 0.3001823096439077 -9.188686945194155
201 -4.031399823698429 -2.493192569437608 5.721180965552222
202 -5.04460846079794 -7.881247423763442 3.307088334682815
140 4.235417977424169 2.600515184601727 5.537462987075358
12 -2.093161399580529 -0.2365715964877597 -10.140189760921755
136 3.5387666440615986 -4.078324375428267 1.0836590082812663
138 0.1015226143996667 0.5944136790386192 -3.3672761842638783
9 -2.8466011043890096 -0.8809940634196468 -0.009239774882653293
195 2.818517254137328 2.2101286059170633 1.178824695655035
209 -1.3528633845396099 5.8874967977655865 0.9296407329142187
131 4.107713528432236 -3.106367413681783 -5.4709333714564234
143 -2.321642831901434 10.413835613754724 -2.5508576893233905
158 -0.5640951540596794 2.0533030429335573 -6.155830080465548
207 -3.485931962546237 -3.25729205038373 -2.0339076200094763
208 1.3143116957166674 -3.772902815575744 -1.0672606395288684
221 -1.8618563027986788 -9.238959979374876 -4.846076701926371
222 2.5230746659054764 -13.063415796296415 0.5208142293404707
206 -2.742571656729792 -7.433895637007088 6.22547288193079
205 0.22618756176881172 0.8378929359096486 1.3964822654920457
144 3.357696413659785 1.036672615677173 -0.1359195333393595
141 -2.7907190315225616 6.329970978574043 -0.9530337996161268
29 -1.7823998558291227 -2.5320160862087886 1.4177587489284276
151 -4.558686665522802 0.8782491536528896 -12.278918251806465
162 -5.828760385835061 6.109535143727935 4.670967309099709
167 -2.572008132242517 -5.988931595832136 -4.690898919552055
212 -0.02400556020584293 -1.5871349542802764 -1.7087959360918377
215 2.881081162174306 -2.0755954922261304 7.4317161153124065
226 -0.6264863649992727 1.3463114887178824 4.546044452220372
228 6.75752256355984 -2.4918620920821217 7.004042109246593
229 1.1797002161733894 0.7777828569131945 1.2544520604971865
231 -3.8826270762128985 0.028799389219320057 -3.546884914342435
163 5.048345698134905 -2.0310061726418147 0.9052124505783127
164 3.703084683832115 -3.0050964412757306 2.0189408900357675
225 0.29486019802917673 1.5213469970359377 -2.2364658734091623
20 -2.505612174140704 -2.9344217243834203 5.872501296717696
36 5.260967900777747 -8.833888149580911 3.5423672554497863
155 -5.257314825587976 -2.2492333597555887 -0.07612092388984289
166 -2.0054545241862063 5.466476881280833 -1.5676582336157576
170 -0.9232661322167695 3.2786266688079997 -13.962742987195696
171 3.6298761904436536 -0.008670109366342903 4.447308406128628
216 3.477196838128842 4.096242766274043 1.6271638496703165
219 0.37160387634041186 3.4119100478630715 -4.644369101095454
220 -2.4997478868456375 0.4650715258593069 -2.046837579525135
230 -0.22741985906590717 -5.720244613060102 4.075940989026573
232 -1.2227913593611581 4.6512531889040645 -3.796899229320332
233 -2.94644576401769 5.703022775959879 5.760004989856348
234 -6.540331320976262 -0.9382688144277866 -2.039347904205012
235 1.4833983156527095 14.97613303026441 7.684600958165484
236 -6.543015076390014 -0.8998883463443742 -1.85109096740947
40 -2.0078354239614153 -3.3397460486649817 1.6266241038268354
172 4.273344070700468 -5.1305986173853775 -0.9584771054761052
211 0.05907601538090613 -3.927893916144196 0.23681830069880452
147 10.27879368300613 4.045572107572004 -6.647561510025202
227 -1.9152721597163984 -1.7667133102798493 0.5717414786814211
159 -6.0028877030934895 -2.853704134919425 -2.8590053811121856
174 -0.7563049273494109 -4.328159773648787 -1.222138127703191