LAMMPS data file via write_data, version 2 Aug 2023, timestep = 50000, units = metal

256 atoms
1 atom types

-0.3491908080043755 14.429190808003671 xlo xhi
-0.3491908080043755 14.429190808003671 ylo yhi
-0.3491908080043755 14.429190808003671 zlo zhi

Masses

1 58.6934

Atoms # atomic

54 1 3.559242769864799 2.939244224927798 5.349401162670459 0 0 0
98 1 4.251472958412791 2.4336732671186945 3.1015409425108746 0 0 0
108 1 2.036999059292412 0.39288069800250025 2.5349200187725422 1 0 0
221 1 1.5382069206079276 1.0967414290583068 5.34429205552764 0 1 1
180 1 0.5668452338488497 4.194411471750829 2.0072709296001325 0 1 0
163 1 1.3773931867551792 3.752362634622302 5.833434255844907 0 0 0
76 1 0.13696100281137696 1.332981090058491 1.6268017848524703 0 0 0
137 1 3.9950207426642104 0.2634005133831574 4.6496434916489715 0 0 0
132 1 -0.26319641218331713 3.1193685969754794 0.027485719033882916 0 0 0
152 1 2.9123010321457183 4.322705291936319 0.9536787169733365 1 0 0
136 1 1.914381591179266 2.8491659763181567 3.3893637613616687 0 0 0
113 1 2.552219653950333 1.9882767728280668 0.8679968328187322 0 0 0
253 1 3.4941507847012865 -0.11625869901415792 -0.02019861463520628 1 1 1
121 1 3.3512285335169496 1.052738580253031 6.970811560042404 0 0 0
134 1 5.297180203062299 4.35287842017323 1.8796189354043955 0 0 0
155 1 4.982214857361093 2.459024193346163 0.6277296786372154 0 0 0
1 1 6.513544477334308 0.9293681648167758 4.3751692964723565 0 0 0
153 1 4.5791139187891385 0.4180372561498177 2.1271051608194647 1 0 0
118 1 8.083414888886303 2.829780909793688 5.837036646111265 0 1 0
13 1 6.621975473697992 2.2465753486908704 2.5121587144920934 0 0 0
135 1 6.053814899077907 3.9793411983681883 4.788764663416947 0 0 0
72 1 8.800117591800301 1.874804576772663 2.0459011532980242 0 -1 0
176 1 8.452644831725152 3.623167993497239 3.8899773457501166 0 0 0
86 1 9.408644564610825 3.4978365789685 0.3518779393021989 0 0 1
37 1 7.162468988114277 1.9868178449368563 -0.059106891294873454 0 0 0
19 1 7.675931798489034 4.258055747550201 1.9105736591827767 0 0 0
78 1 5.667505886076067 2.0637592116892485 6.414622793109867 0 0 0
49 1 7.345269943666959 -0.029506292027651315 2.583344269603876 -1 1 0
62 1 8.559636072988297 -0.21210625717699294 5.1047977378058045 0 1 0
115 1 14.102898976972224 2.9306859226144977 6.83611338667379 -1 1 0
241 1 11.847876389321456 4.291482077959903 0.35464009803457386 -1 0 1
173 1 10.022487723475741 3.1983066181112174 7.010897799359548 0 0 0
55 1 13.211990192584746 0.5146356980080564 -0.08278400483482845 -1 1 1
170 1 12.982581862899654 2.6344642836170746 1.6544629771106103 0 0 0
161 1 10.632007558396364 3.660544699455386 2.489267725533417 -1 0 1
18 1 12.118178734194522 4.220082836987417 6.5732150820361674 -1 0 -1
143 1 13.860406851300748 0.6976937427887817 5.88377521334616 0 0 0
70 1 9.927283021556697 1.3771767593991977 4.482386394693479 0 0 1
38 1 14.373148483232736 2.513423255607214 4.158851287947247 0 1 0
95 1 11.046123069940876 1.6122169018246784 1.1942242611422962 0 0 1
123 1 12.210258466688803 1.4294811071072453 3.6651368319530064 0 1 0
227 1 11.730654335082846 1.3274041848414904 6.254770586253846 0 1 1
184 1 10.820677569263676 3.728698413269755 4.775479960678046 0 1 0
33 1 14.424351128053424 0.059277430993703584 3.5685775920217093 -1 0 0
238 1 9.814032181681629 -0.2588487318158311 2.7602909360524466 1 0 1
195 1 3.3351376690580987 5.163984926505502 4.565873628262521 0 0 1
101 1 -0.33328583849449994 7.9489284001397555 1.3299792422943995 0 0 0
218 1 3.1181979530849047 7.343657112750195 3.7479613863417445 0 0 0
225 1 1.0056945961776096 6.224589915583405 4.865997216102973 0 0 0
35 1 3.552623903874938 7.138020343241342 6.529722638754254 0 0 0
216 1 1.925114767166912 6.020893002153713 2.107498568406323 1 0 0
5 1 2.694979661655045 7.800582775532706 0.6290378590010728 0 -1 0
243 1 1.388030837584872 8.415965531892834 2.864578526136827 0 0 1
191 1 4.409705633835216 6.224910848526703 0.5133301205396531 0 1 0
239 1 -0.26757609395282544 6.460288338444601 3.0903192527551284 1 0 0
130 1 1.8751622330033673 8.554337170214716 5.331319235526739 0 -1 0
242 1 4.547365439879531 8.49856764170364 2.3556799870175675 -1 0 1
192 1 3.2074894708401502 4.7286799309407614 6.979886597602311 1 0 0
249 1 4.726051324262197 6.163554723093835 2.599274692723683 0 0 1
159 1 5.329583512556437 6.293683513174078 4.957759766653022 0 0 0
11 1 7.235962129470518 5.891053072107018 3.6972186348073093 0 0 0
122 1 8.405588117705001 8.138180007845325 1.2969938508665266 0 0 0
61 1 6.975514456269913 6.247006068582099 1.063055887494276 0 0 0
237 1 6.77887207510537 8.266683423070035 3.397630859496248 0 0 0
187 1 7.846353986853624 5.043754543170942 6.550327257114566 0 1 0
214 1 9.203765377304585 6.344647069777835 -0.33726851752189907 -1 0 1
20 1 9.2097047273659 5.858983682005771 2.091776102293008 -1 0 0
150 1 4.689186619840655 8.7610592312327 4.620037023231675 0 0 0
89 1 7.686136132067539 7.271455863251698 5.552051903295348 0 0 0
197 1 14.054611509720928 4.743100657348879 4.878202883881932 -1 0 0
9 1 12.842778751921028 8.675854893903832 -0.09389159164381639 -1 -1 0
90 1 12.387798100550516 4.775347378280741 2.6311781859726655 0 0 0
245 1 9.956867845697897 6.100976691259532 6.90711970421832 0 1 1
131 1 13.897641459843523 5.372453781331505 0.658368379234646 -1 0 1
24 1 9.831478461531983 8.097760247858208 2.995089475921753 0 0 0
186 1 11.83813034334878 6.3003363266318875 4.4303774574782615 -1 1 0
189 1 12.304857785442476 7.051682293568873 1.8171231873370943 0 1 0
250 1 9.608310234878548 6.3893361557762445 4.599199278127171 0 0 1
207 1 10.640225308484435 8.180799762080856 0.4662077381525015 0 0 0
166 1 12.834579956922482 8.68812750866369 3.736498420292759 0 0 0
48 1 11.525863395120894 9.485950791406115 2.0628929989369835 0 0 0
254 1 14.182079455437886 7.524430805044947 5.728174716392797 0 0 1
244 1 10.949358868378287 8.173141276619596 5.273411824628336 0 0 0
34 1 11.496184939975766 6.361425925560076 -0.2948423092704825 -1 0 0
12 1 12.219077987053016 7.041598142503803 6.833933711330332 0 -1 -1
212 1 3.4511613262391916 13.364205453494883 2.41276373582478 0 -1 1
182 1 0.560627643349286 10.170162823112321 6.749222059759747 0 0 0
164 1 1.4249034091165247 11.924459887151354 5.876251354545038 1 0 0
30 1 1.8876451795593332 13.543138562627107 4.172611457202527 1 -1 0
174 1 0.03242837062146087 9.511282093788658 4.232239654127844 1 0 0
201 1 2.5533714513080072 13.984919334110511 6.30547679750818 0 -1 0
32 1 1.3515308689526366 11.465603288519265 2.7194445624236314 1 0 0
228 1 2.6673470829040564 9.982560520018382 3.9939216284875174 0 0 1
112 1 3.212003241519663 10.55837533613137 1.906429673623912 1 -1 0
154 1 3.697541462360519 12.195404801183237 4.820458617159094 0 -1 0
63 1 3.4565292125797997 10.349780579988096 6.332771288653181 1 0 0
133 1 0.9465405278039833 13.548978680582273 1.4747382378051468 1 -1 0
124 1 3.3796613096727346 12.38518337085089 0.20557575522537563 1 0 0
172 1 -0.06670214060330709 12.654925611431572 3.9324649789745605 1 0 0
158 1 0.5593086500114449 11.756771838215656 0.2877516498796642 1 -1 0
190 1 9.252212668088607 10.416632972587973 1.5755021413499861 0 0 1
85 1 7.820561066292032 9.521186590439477 5.712741967498529 0 0 0
252 1 8.285393628685998 10.186259980426062 3.5441062017211795 0 0 1
10 1 7.443118008901345 10.967739332853913 -0.2498533025731563 0 -1 0
81 1 6.0982649533356845 11.878752119702359 6.506333505200541 0 0 0
156 1 5.538174664372845 13.405934838919762 3.3135977922781494 0 -1 0
73 1 9.45411969215462 13.172831261969428 6.8721089256931815 0 -1 0
67 1 6.739755452677892 13.263670360263706 4.925665188765431 -1 -1 0
7 1 6.293020203620705 10.551031035819467 4.542575297606652 0 0 0
230 1 7.5871687898589455 12.298710361567935 2.549259860850062 0 0 1
213 1 8.510597482865354 11.806500759777812 5.349960967304755 -1 0 0
2 1 6.696478024099015 9.625362393355271 1.5020117481455937 0 -1 0
53 1 9.107628900017474 13.169494687139423 0.8517526190060978 0 0 0
157 1 5.170793693093249 11.477494672893766 2.7010003652777015 0 -1 0
14 1 5.637051818498165 13.090931583781337 1.0687678735181185 0 -1 0
3 1 4.801558560637715 9.555805879793098 -0.16345039428955632 -1 -1 0
234 1 7.286865551627882 13.496673917737066 -0.3402482892929939 0 -1 0
84 1 14.203175897126911 9.902664824696082 1.9256760245779017 -1 0 0
6 1 13.891250602577255 11.948234032614899 6.061282479441054 -1 -1 0
94 1 11.67295198944981 11.564403555480062 5.675095021239289 0 0 0
255 1 11.36145745134706 13.791715700752754 0.48739452221214985 0 0 1
188 1 10.337229032614054 10.429326908070419 4.041240730999527 0 0 0
51 1 10.392830412230893 13.175343240319027 4.530889267781751 -1 0 0
222 1 12.255745186870424 14.304669384605173 2.419192596143651 0 -1 0
104 1 12.74676812008114 9.5178096406834 6.095734774067267 0 0 0
68 1 12.688761406771839 10.998312378020884 0.3105120514702122 -1 -1 0
148 1 10.980458553135982 12.165597234719876 2.691605851373973 -1 -1 0
52 1 13.6066654794793 12.604657350380808 1.769203903664304 -1 0 0
23 1 12.860598212894274 11.262989320077324 3.623187505125725 -1 0 0
4 1 12.755409231715227 13.66530484838798 4.550673714932203 -1 -1 0
47 1 10.38826679470695 10.909811384653619 -0.24885318764135178 0 0 0
8 1 1.8871591120839497 3.704463810935982 8.428568705361965 0 0 -1
248 1 3.1204545163796036 2.162630051410265 11.448993226475356 0 1 0
106 1 2.519870252733991 3.647388243330789 13.187120108547866 0 0 -1
144 1 0.9768806154329102 0.5481660429472858 11.813725681962179 1 0 0
138 1 2.8292757653200806 1.5382305246682995 9.200284640624428 0 0 0
211 1 4.525469671071555 4.058319285116907 11.068797737280168 0 0 0
77 1 0.656807626083024 2.2353986092963325 10.223341991493228 1 0 0
22 1 0.6403206667227427 3.461469124964518 12.129700206685147 0 -1 0
126 1 0.8956964982912836 1.302365039099598 7.7090421571152925 1 1 0
56 1 3.1917789984545157 0.24793993370051493 12.357719809095077 0 1 -1
42 1 0.1439121646584709 -0.2448065893702331 9.607754339372555 1 0 -1
59 1 4.124318731201536 3.3160355099900505 8.923834751740905 0 1 0
229 1 1.3193791525385106 1.288428875764978 14.087758498673914 0 0 0
103 1 5.129228863807663 1.5515863719641132 10.870157636943553 0 1 0
145 1 9.079621538727963 0.19132845889916217 14.16042640496373 -1 0 0
151 1 7.243487098143673 0.4184733154267446 12.618449231919474 0 0 0
223 1 4.804412445389197 1.939446841971555 13.155538277770518 0 0 0
50 1 6.372367553288017 3.319674423153559 10.048375166621817 0 0 0
93 1 6.878556099333217 4.240647721920777 14.42858247623813 1 0 -1
179 1 7.222003830644042 0.36982857046878526 9.770248595991315 0 1 0
26 1 8.654765694901265 4.270927571410594 8.83854954503246 0 0 0
120 1 7.578391825392752 2.3273835752450234 8.00270790993769 0 1 0
142 1 8.212990482039832 2.925619504985772 11.270697231609567 0 -1 0
209 1 5.6687232608077505 4.481496729152106 7.04115220349804 0 0 0
96 1 9.468488458314312 0.3460304933867385 11.60527714887331 0 0 -1
165 1 5.560031473858267 0.05678481460297258 14.183063210187814 0 1 0
46 1 5.258550896966045 1.3546823368968102 8.489896721248051 0 0 -1
74 1 7.24949442886977 -0.09755889955844088 7.237103091476227 -1 0 0
36 1 4.677517000344202 4.271817984198939 13.668231295044958 0 0 -1
127 1 9.336239176856413 0.8170333013215756 7.062341367643837 0 1 0
233 1 13.065043783799833 0.365952377902661 8.261460851130185 0 0 0
194 1 10.49707550610945 3.9449767151831203 10.691661396307612 0 0 1
208 1 9.588472746884559 1.7171569936608528 9.599933988054683 0 1 0
80 1 9.642467326456874 2.012923823759493 13.374078049599955 0 0 -1
202 1 11.459026865671362 2.0215972728420484 11.637480255803219 -1 0 0
162 1 13.662606297557566 1.6565122571171367 12.843752887005795 -1 0 0
39 1 13.259044408391876 0.9562495991209421 10.868414244295451 -1 1 0
119 1 12.12127861281104 2.425506864420189 9.24266307719623 -1 1 0
45 1 12.998295810849534 4.458584830121607 10.790965318844133 0 0 -1
146 1 11.931442853007038 -0.119515017805089 13.171207543192931 -1 0 -1
17 1 11.791436324125563 2.3745029364811514 13.87873484505143 -1 0 -1
196 1 10.27929851543226 4.4431645900917225 13.124200678522325 -1 0 0
82 1 13.842898814887619 3.9198775044577827 8.857810743154523 -1 -1 0
69 1 11.237150542082095 -0.11855344573097129 9.65031360508242 -1 0 0
169 1 1.0764651558271743 4.984408280700646 14.321380865936352 1 1 -1
58 1 0.6353868032649218 7.577142848829851 14.190586994160544 1 0 -1
28 1 1.8275351932803972 5.629153507786585 11.455043585449673 1 0 -1
129 1 3.8811758786182065 6.071305932256285 11.678602483920667 -1 0 -1
219 1 1.107454959854116 7.841167248023493 9.871549371835968 0 0 0
43 1 0.8501772867202364 5.715785024095029 8.968033426821332 1 0 0
41 1 1.8529573975669615 7.827246867522034 12.109748449388782 0 0 -1
88 1 2.9913064959302202 6.364228115860457 9.396896991707287 0 0 -1
183 1 3.255056485167766 8.878731296840769 7.881362019861565 0 0 0
91 1 1.4447971800393444 7.301313399469646 7.250034934418767 0 0 0
71 1 2.7364189851655243 6.151730577344721 13.583469013726628 0 0 -1
185 1 3.425265933213064 8.972888416878035 10.598839826459741 0 0 0
141 1 -0.24910234993417835 9.010927074392171 11.803851333862628 1 -1 0
21 1 0.04753046923928739 6.251968336938768 12.530931265697262 0 0 -1
200 1 3.9353684002394953 8.096248292791632 13.177939189797922 0 -1 0
128 1 7.924418194625452 6.460570320763366 12.780624189583673 0 0 -1
99 1 5.182672610946938 7.708462299266807 9.509421308875321 0 0 0
177 1 7.318370901075086 8.440372023392435 9.580833670468149 0 1 0
29 1 6.456843097920376 4.5832711868817 11.878857746325565 0 0 -1
102 1 6.067406872748725 6.780099652946158 7.113860180697805 0 0 0
16 1 9.399761211353582 8.459391564506497 7.246437644448157 0 0 -1
66 1 8.281663199300578 9.273047092109476 12.940238778121508 -1 0 -1
25 1 8.489200743571573 5.4805063099679465 10.729576260882144 0 0 -1
193 1 7.89571383160009 6.456673021601852 8.416750785010333 -1 -1 0
175 1 5.341789394705142 5.487356561442251 9.149735897815056 0 0 0
205 1 5.995528823214567 9.179047984748319 7.524307350894936 0 -1 0
116 1 5.685871653646428 6.721327264971714 13.292583867265382 0 0 -1
181 1 6.65428394659234 6.698165226768365 10.99683551455475 0 0 0
149 1 8.794835814031192 8.194023496041961 11.030342537620804 -1 0 -1
235 1 6.19993157537897 8.740100367506173 11.681213915267417 0 0 0
64 1 6.863781655259597 8.450173766463124 14.343379631949013 1 0 -1
92 1 14.087667051316675 5.564141297913947 7.042186381726626 0 0 0
178 1 11.595342144471065 9.098320586202263 7.8975061777972195 -1 0 0
247 1 13.11665012599099 4.731743269697769 13.115104371683653 -1 0 0
83 1 11.833174924650535 4.9517016049176 8.843068246267258 0 0 0
240 1 10.058325049045624 6.7897801838921135 9.206707904641878 1 0 1
204 1 14.2631075511851 8.372240817138621 8.226466977524122 0 -1 0
111 1 10.32214750437307 7.809965627460429 12.78105803511664 0 0 0
217 1 13.155847899907222 6.829479305078195 10.226321918998114 -1 0 0
87 1 11.617220782017942 8.46071675694822 10.954847340143196 0 0 0
109 1 11.012645735931244 6.023149695978103 11.745965706532363 0 0 -1
140 1 12.828658544348468 7.193030508129734 12.605521664268753 0 0 0
220 1 1.3865345771004263 10.140888694385708 9.190057766639363 1 0 0
27 1 -0.09371098506484393 9.741980052023873 14.243403039481752 0 0 -1
210 1 3.3359535375877516 13.709198746672616 9.637290959002698 0 -1 0
226 1 4.414981676776448 10.649144222727042 12.288333357341429 0 0 0
224 1 1.2616098879640154 12.657329808492655 11.229676451919246 1 0 0
256 1 0.9527861612853297 12.279776568884529 8.73469637013125 1 0 0
160 1 3.232928971219264 11.500263580517277 10.150087538817026 0 0 -1
57 1 3.3252058056576157 12.061037300587039 7.809467646348128 0 0 -1
231 1 1.6028650758607177 10.322812648460154 11.632476681374307 0 0 1
232 1 1.367398519720263 13.600203689328307 13.713799198253923 0 0 0
139 1 3.3642751911912248 12.732246801958421 12.65125405635671 0 -1 -1
100 1 0.1311460321013882 13.87553719416859 7.244655950436584 0 0 0
246 1 2.419771862587734 10.140209122445825 14.413539723676298 1 0 0
215 1 5.356193796506359 14.182752489810714 12.156013374481837 0 0 0
236 1 5.156101243830986 12.608649737788689 10.457363924964934 0 0 0
206 1 7.410201416407545 13.189922669584735 11.137371073299054 0 -1 0
167 1 5.616108907748658 10.363820660881448 9.725787449989816 0 0 0
107 1 9.316369324946013 14.145010151001362 8.94053710351951 0 0 0
79 1 6.480429243880966 11.520792288812899 12.36011140791426 0 0 -1
40 1 7.995091295197686 10.60736901557365 10.839156156428444 0 0 -1
168 1 6.171408842281017 12.980388500262091 8.659329999257864 0 0 0
75 1 9.068754126098984 12.923395031061919 12.902897922133704 0 -1 -1
251 1 7.857422733778409 10.992951762954565 8.45837578398229 0 0 0
203 1 4.813247135840996 13.984133289360965 7.426184748685101 0 -1 0
105 1 9.826196036028282 10.67486179545801 12.30351402621201 -1 0 -1
31 1 9.725533048762983 9.915152620885795 9.421734181092315 0 0 -1
114 1 10.951885411379365 12.065115670936013 8.912855095669578 0 0 0
171 1 13.175273968282617 10.629293759656846 8.151251147131951 -1 0 1
15 1 11.981931281418689 10.632003509183683 10.543178991786213 0 -1 -1
198 1 14.283096200443687 10.973875005414136 10.348250539472645 -1 -1 0
97 1 12.071633595131711 9.853770837758482 12.827152308161818 -1 0 0
199 1 13.92734679360617 11.32886886570472 12.724541760915734 -1 -1 1
60 1 9.61465752371674 12.240148965116969 10.66020016201676 0 0 -1
125 1 11.425528161132881 12.727982708287872 11.972205335225716 0 0 0
65 1 11.749898327234419 13.733890283558619 7.2503280261155885 -1 -1 0
147 1 13.682171183219129 13.457316784393278 11.626244004459153 -1 -1 0
117 1 13.12034142466949 12.816770178451751 8.972003811787271 0 0 0
110 1 13.954390867322171 13.088338127825697 14.173568137032273 0 -1 -1
44 1 9.877941773049919 10.791115285187868 7.235006144287275 0 0 -1

Velocities

54 1.628266216079756 6.261275442462688 -4.988867253384029
98 2.921867057481352 1.26784881253303 -1.4070817264063231
108 -0.9987116734361614 -1.4974497522968324 5.66483799685806
221 -8.059378003928332 5.853467948476513 -2.3956062571064214
180 -2.0959239647906673 -4.003614881212218 -0.1531888991467779
163 0.9252814616447163 -1.8356015587114956 -7.347203347517359
76 -2.8318637251635135 -8.292554642952705 -1.485936105734945
137 -6.033063457288304 -4.571895436123647 -10.500409889637865
132 -6.787204029904011 3.6309873351016475 2.2598761576367132
152 -1.627625497141393 8.184644024811295 2.5130835510529246
136 2.5326519280856044 3.287146071277424 -6.8248549600941475
113 6.34554504936961 -3.828223677343516 6.891749281520296
253 -0.8346637438705238 -4.162612010292024 -4.9438430518335235
121 2.2819966849716105 10.494097333169435 0.8138345516575529
134 0.15405889252831492 -5.927407208851286 -5.564430560984541
155 1.1943596702059769 8.111917983516541 0.3550162854707002
1 10.495272601612673 -2.2839170195937304 1.3479188970659168
153 -0.898126351916523 1.6701066488920202 -6.040550803091711
118 6.875546715580707 0.41876152884788015 5.545980547091565
13 0.2786847453244376 -9.22536755777443 -4.002991023343962
135 -4.752076735814833 3.196808405876716 0.5337968340269934
72 0.4632383602656956 1.3434763944499235 -4.757626190647969
176 -1.2878661841536112 -1.4070691788413892 -7.73397243386604
86 -3.7472492688630044 -1.111947368295245 -7.901306873097396
37 6.725933749031551 -9.104415010708331 -1.3126629544208746
19 -3.8706850946912152 -0.6989671022818322 -0.5564180539287235
78 0.4170163610755907 -0.6798525398519302 -1.8367717043887308
49 -1.8466928228460646 1.0864343017389073 1.3223160491942545
62 -6.184336746944624 -1.0577914853156365 1.8722876694890178
115 -7.079844755684152 -1.77312949362683 2.4711147184776125
241 -3.259092667736205 -9.46862875550553 2.3869734870656014
173 3.280691543392674 5.718312811841766 1.0629265954173825
55 -7.51920323022496 1.2474610540837372 -5.997245625559196
170 -0.3016698448869379 0.25848086097925577 1.0691183821708539
161 -2.14976625734011 -7.641667172388947 5.7177807625066
18 -5.2359446780647225 4.257909190160508 -6.754316661764991
143 -1.0907072773661661 5.110505507437999 -0.6827939029060102
70 -10.754136206723173 -13.569330776066948 7.611184447203949
38 8.121652771297114 -6.708048713090539 -4.88243909812411
95 -3.9487804364691192 -2.3581460985246343 0.01694462874375878
123 1.0484219649041213 3.5510088266872573 0.6176193838812235
227 -0.62572513436358 -1.639478861142842 -1.7800559140869454
184 5.882202878302673 2.1194813768656666 5.8822376487704275
33 -0.8339761061648335 -2.1337814935673007 -1.981648453256811
238 4.652154959676134 -0.0884212461654094 1.1393317291983185
195 3.856193225645833 -5.252249444602249 5.227330992541172
101 -2.026246776252862 -0.19493348812540823 -0.20500369000577506
218 -6.507469984635401 0.9193883827368423 -9.923725091161328
225 3.5571629885627347 8.927917319116093 3.7782812726067427
35 9.870111853706817 -5.844936720890747 3.4419355719371265
216 -1.388266449526772 -8.552393236098085 1.4917665464250653
5 -4.9223026830860475 -0.1910837757626146 5.666330684956579
243 -5.667267698106198 6.277392592480815 5.722920855028178
191 2.448237663986358 2.7699617790291238 1.635406569257031
239 0.61447841200141 3.9111202252988555 4.264706155568005
130 -3.6539091232183654 -4.902712768586749 0.13322522910230358
242 -3.2980083348856586 -11.002925762442548 -3.4014333066048743
192 0.1821033462879975 -2.3939122171739013 -4.567520525244283
249 -0.09059488724002164 -3.467621226432133 -1.7836460408515005
159 5.948323182294065 4.246080019814943 -0.009580408488958287
11 -4.889526115064073 3.2002576403644913 9.730980199397422
122 -2.5026958419297043 5.118585085731384 1.9874481211011068
61 8.44217631753905 -7.242690981136511 -10.992537880726314
237 1.48352178294313 5.026379288900888 1.969677210636142
187 1.7359618662687466 -6.8028150501054405 1.5682086057148281
214 -0.34604585951596545 -2.740160771436849 2.614295392863693
20 3.917199090303438 11.345882616995624 -0.2660815612239798
150 8.435528362734212 4.912497831439234 -7.175209890244491
89 -0.2590330077104987 10.991163879395097 1.33375038026724
197 -2.889183528306135 -5.68843277692627 -1.6786390042861312
9 -2.023958448290774 0.042626867991843884 -2.8368485849231813
90 5.440977193134451 4.238803172023457 8.733226320114081
245 -6.483405309469783 1.3575184845049515 1.6793425894035257
131 -1.5427965886740933 -1.8990572667853969 2.7009913261483796
24 -0.24489136964950448 -4.5823437805532246 -1.381168295064267
186 1.8416409260064437 -4.631809284010884 1.108398783413635
189 -6.96212356359119 -6.0506225384404635 2.4113920683876695
250 -2.810405791954407 0.1927495984561916 7.332331109762812
207 3.789169088172196 -4.96058129330137 7.617642739951263
166 0.6497410167979544 -8.962277168628345 -1.7549852716405194
48 -3.106821911085799 9.661231678293232 -4.337735931114422
254 13.821687533967532 -7.35435801613513 0.3634479430643968
244 -3.8267708265775178 4.845006678031711 -3.387849688108777
34 -6.31391220502384 -0.485483077038578 -3.228683949761105
12 6.263306033480811 1.3890618536825616 5.251562533112417
212 -3.227628898148894 -2.4539909322888014 -6.222355004427336
182 2.178768662316496 3.3043240836729604 2.649552600752735
164 -3.710153008167188 0.719903852811444 -3.768301641536391
30 -2.5215676335366854 2.679525901630674 1.031017224989221
174 6.696192936273233 -4.171356569767205 2.280930995128909
201 -2.0134463592452017 4.387161647753655 2.886678278553648
32 -2.1983384827895582 -0.3681580973313453 -8.082017067138812
228 6.620413833598134 -2.8076040431238627 -12.200540713394782
112 -2.185912274958519 4.315864025236868 -4.253076215623109
154 2.4251411229164086 -7.736455321949924 6.340656065163476
63 1.1057093684364065 5.862280154501333 -2.9339595034799855
133 3.618487223937898 7.3924485442832015 0.0003861463792788914
124 3.421579254466014 -7.099627351934172 -4.1082722377351475
172 4.3183852210435925 0.6927767980312817 11.617955909398594
158 5.159993062662289 -0.2945201856056477 9.813535034710402
190 -3.493389534952371 -3.3232211800281033 0.8945784777619047
85 5.992628876649384 6.689579521656929 -7.749611919379165
252 -2.3771122295159195 -11.965188834989647 4.599666090144836
10 -9.100009145991033 4.336228520636975 -6.337117083994973
81 -7.578198215714697 -2.3865116039444714 4.356671661004349
156 -8.035916123717797 -0.2224494501268662 -1.0371477534994822
73 -3.586444592506225 5.754514201941449 4.531416295994081
67 4.747939541395974 4.6885017323225515 0.415063027675021
7 -2.784649921110039 -2.383978285060607 4.915348164033315
230 2.2610067136122693 5.687857379416181 -4.484484262888602
213 5.88179377507865 7.792127182132435 5.738953167237443
2 2.3238752987682165 2.417720064005212 7.801743376054418
53 1.4074456066797683 -1.1782064352080754 -12.150716175463328
157 -9.218462626647593 2.1724915762075203 10.900817645277796
14 2.6650274770744202 3.422408662009503 -1.5285207973518102
3 -10.963704419835297 5.435211370571271 -6.760448344330419
234 10.87372476405638 7.467324821745055 -0.002196177741563867
84 -3.600645308124396 -0.5019928851247901 -1.9121863654659064
6 2.546023323844343 0.6071246734784929 -4.464307146133647
94 7.587285707949054 -3.5567710891667073 6.383748762794821
255 0.37578393946398847 1.0862450312279908 -1.1865231149024764
188 0.7958089091195064 -1.9498944094347586 4.429227517278304
51 -7.806852401286821 -2.5465738604909745 2.5057425358864256
222 4.33980574299311 -6.415267370205008 1.0581721463291631
104 2.2677042875296167 -3.5066488845601542 3.377181671786634
68 0.8332030164827816 -1.9425792009462544 -0.6297557880111618
148 -0.9167653688319783 1.030993191132416 -0.29038780780215195
52 -8.55425441740594 -2.8049731673976765 -0.5109409190684671
23 -2.989293173670044 -3.538905408800884 4.297158570386241
4 1.4338260570065136 6.174957181475689 -5.29426432875177
47 -2.9372941332008593 -7.482270517253628 8.283300360818899
8 3.2188581002579713 5.131173544726365 -0.8189510889281103
248 10.452133508886703 0.8688190459376918 -0.5876213218570969
106 -11.588933959588513 0.9294536150181415 4.131598128976075
144 -9.426469077164338 -6.210256251236397 -8.669324588487987
138 12.75584970775237 -0.605628147869241 -1.7736373898750266
211 2.257012026573195 -6.000163118531703 3.79614601703001
77 5.1388869833507025 6.789875403863443 1.2401359264860778
22 2.2143559854402133 -7.94226070397244 9.499288592677598
126 -0.7198973328104818 -0.03218804270457497 -0.9293474554965429
56 -2.8797685988442563 -0.24504402503661887 -5.299512060307445
42 5.150650506197136 -3.44895020914198 -1.2128647625507156
59 -3.8690622620607114 -3.9031309332983137 4.152944822695593
229 6.466556118587239 -2.042440749785082 -4.872061083101339
103 0.5029204883942799 4.063130557446637 10.05191670195179
145 -2.7091871103631604 2.804901330043713 -4.515342719108554
151 0.7548383455599478 4.041895417517607 1.1722626028971987
223 -2.754430561935981 3.7438825596023286 5.047674211920259
50 2.191309608085177 -7.795953346876881 0.4692860847852348
93 0.24287144156899468 7.54646968442532 2.7050485496565613
179 -0.5039852866022007 0.9213696165652866 5.493742488505519
26 -1.1071831984981564 -0.5591075258801024 -0.7579879780614495
120 -2.917027022602937 4.556556054847667 3.1608454853444266
142 -0.9323043595922816 4.247823006564222 -11.987627305757588
209 -1.2276530223373898 -5.167829098192138 -5.944184782036646
96 2.9106051499905514 1.5662836890032694 2.3844051409415066
165 7.007183724615058 5.3595621866754035 -0.2759179785090658
46 5.909582653960725 1.06017582237728 -6.681431139849999
74 1.9101633570854402 -1.6984679430024159 -7.863389732265317
36 -4.374361689207778 4.735930162681696 -0.1869848521697739
127 2.442082961707666 -4.187107125402998 2.3577741541108694
233 -5.719253257733635 -5.824606279380824 0.03542223716295213
194 0.2615442539646863 13.044094488204832 3.4647087384945725
208 3.4383531966427796 -1.616071174963195 -0.7766211603455204
80 -1.0827636826042142 -1.9678774373995085 0.34690432272995403
202 9.079288109936018 -3.117110058270562 4.18106310216538
162 9.910689756622464 5.42464512915441 1.8272092475534154
39 -4.301985351013486 -7.006751579834333 -0.37591446323034017
119 8.009752374759957 9.766709949420612 1.1804972443687436
45 -1.2858710688716937 -4.674200255679948 -1.3432870137528512
146 -7.4771042955111096 5.093599224831878 5.561734780002608
17 5.150179732669064 -6.143843196692477 6.5632579440057395
196 -3.063278632432588 -0.49464047887624424 -4.489340213887611
82 0.2786277053520622 2.606030691725354 2.026754478872383
69 0.8601269595655193 -10.244794840082951 2.960323210056233
169 8.56280140521845 2.873977043636325 3.443466193780276
58 -4.8812702661272676 -2.6798374508049037 5.5447155576633
28 1.455079079710863 -10.544638492502463 -8.444588718232172
129 -2.8061703750218503 -1.1772517920255856 -1.9545199991740463
219 -0.5333792557389845 -5.723269775166442 2.792287496973254
43 -6.9871329014426315 -4.496568592238796 4.8616182772351335
41 -7.346747043848392 -0.8784521628499523 -7.20259955312648
88 -4.556925163633457 -5.716227749301697 -1.6818469946396564
183 -7.343040129432802 2.8951015154103774 3.51074619249875
91 5.977364918831559 3.844895563010313 -6.1882139753223315
71 -4.662831571485981 0.7544280639124432 8.464074809650738
185 2.2746434500729085 4.388509573735158 -0.6241623007823793
141 3.1156599531023597 4.519877673670419 -1.579492495370674
21 -4.222388845948255 3.1341307147192237 -0.7248853627070303
200 3.5396780128946728 6.27481611868266 -5.334289547555116
128 -0.9857739129641031 2.149152703823863 -8.55838191929163
99 -0.03970178936615827 4.108005504919344 0.41425206126956643
177 -6.745563503146441 -0.21534765505797446 -8.16243673212652
29 5.924662446168019 9.299836242598339 0.009991824995649237
102 1.6742228049909982 -4.442021445129566 -2.4505060258942355
16 2.149572659963083 4.421389492759801 -3.535877310238951
66 6.836724419044046 -0.24237490986488483 5.616560773505843
25 -0.6910995036870797 -2.85987434959918 6.526667671554676
193 -8.367101185411567 2.767796172109826 -5.8316106286480185
175 1.5905927823822974 -8.889659167258838 -9.355371657191869
205 0.5893996160952134 3.985201333480512 -9.617671620306888
116 5.077022399765403 0.7464282567331203 -5.8764481800727895
181 1.239200433212602 -4.206132275565474 4.260543750454152
149 -10.980699350159293 5.5817261929166735 3.6138379683419073